<LesHouchesEvents version="1.0">
<header>
<!--
#*********************************************************************
#                                                                    *
#                            MadGraph 5                              *
#                                                                    *
#                           Going Beyond                             *
#                                                                    *
#                   http://madgraph.hep.uiuc.edu                     *
#                   http://madgraph.phys.ucl.ac.be                   *
#                   http://madgraph.roma2.infn.it                    *
#                                                                    *
#                         The MadGraph team                          *
#                                                                    *
#....................................................................*
#                                                                    *
# This file contains all the information necessary to reproduce      *
# the events generated:                                              *
#                                                                    *
# 1. software version                                                *
# 2. proc_card          : code generation info including model       *
# 3. param_card         : model primary parameters in the LH format  *
# 4. run_card           : running parameters (collider and cuts)     *
# 5. pythia_card        : present only if pythia has been run        *
# 6. pgs_card           : present only if pgs has been run           *
# 7. delphes_cards      : present only if delphes has been run       *
#                                                                    *
#                                                                    *
#*********************************************************************
-->
<MGVersion>
# MG    version    : 5.1.3.30
</MGVersion>
<MG5ProcCard>
#************************************************************
#*                        MadGraph 5                        *
#*                                                          *
#*                *                       *                 *
#*                  *        * *        *                   *
#*                    * * * * 5 * * * *                     *
#*                  *        * *        *                   *
#*                *                       *                 *
#*                                                          *
#*                                                          *
#*         VERSION 1.3.30                2011-11-18         *
#*                                                          *
#*    The MadGraph Development Team - Please visit us at    *
#*    https://server06.fynu.ucl.ac.be/projects/madgraph     *
#*                                                          *
#************************************************************
#*                                                          *
#*               Command File for MadGraph 5                *
#*                                                          *
#*     run as ./bin/mg5  filename                           *
#*                                                          *
#************************************************************
import model mssm -modelname
generate e+ e- > x1+ x1-
output defaultMssmElectronPositronToCharginoPair
</MG5ProcCard>
<MGProcCard>
#*********************************************************************
#                        MadGraph/MadEvent                           *
#                   http://madgraph.hep.uiuc.edu                     *
#                                                                    *
#                          proc_card.dat                             *
#*********************************************************************
#                                                                    *
#            This Files is generated by MADGRAPH 5                   *
#                                                                    *
# WARNING: This Files is generated for MADEVENT (compatibility issue)*
#          This files is NOT a valid MG4 proc_card.dat               *
#          Running this in MG4 will NEVER reproduce the result of MG5*
#                                                                    *
#*********************************************************************
#*********************************************************************
# Process(es) requested : mg2 input                                  *
#*********************************************************************
# Begin PROCESS # This is TAG. Do not modify this line
e+ e- > x1+ x1-           #Process
# Be carefull the coupling are here in MG5 convention
end_coup           # End the couplings input
done               # this tells MG there are no more procs
# End PROCESS  # This is TAG. Do not modify this line
#*********************************************************************
# Model information                                                  *
#*********************************************************************
# Begin MODEL  # This is TAG. Do not modify this line
mssm
# End   MODEL  # This is TAG. Do not modify this line
#*********************************************************************
# Start multiparticle definitions                                    *
#*********************************************************************
# Begin MULTIPARTICLES # This is TAG. Do not modify this line
# End  MULTIPARTICLES # This is TAG. Do not modify this line
</MGProcCard>
<slha>
# SUSY Les Houches Accord 2.beta - MSSM spectrum + Decays
# SPheno v3beta44
# W. Porod, Comput. Phys. Commun. 153 (2003) 275-315, hep-ph/0301101
# in case of problems send email to porod@physik.uni-wuerzburg.de
# Created: 27.01.2010,  13:10
Block SPINFO         # Program information
     1   SPheno      # spectrum calculator
     2   v3beta44    # version number
#
Block SPhenoINFO     # SPheno specific information
    1      2         # using 2-loop RGEs
    2      1         # using running masses for boundary conditions at mZ
Block MODSEL  # Model selection
    1    1    # mSUGRA model
Block MINPAR  # Input parameters
    1    1.00000000E+02  # m0      
    2    2.50000000E+02  # m12     
    3    1.03753042E+01  # tanb at m_Z   
    4    1.00000000E+00  # cos(phase_mu)
    5   -1.00000000E+02  # A0
#
Block gauge Q=  2.44734760E+16  # (GUT scale)
   1    7.21079233E-01  # g'(Q)^DRbar
   2    7.21079233E-01  # g(Q)^DRbar
   3    7.09132197E-01  # g3(Q)^DRbar
Block SMINPUTS  # SM parameters
         1     1.27931390E+02  # alpha_em^-1(MZ)^MSbar
         2     1.16639000E-05  # G_mu [GeV^-2]
         3     1.19000000E-01  # alpha_s(MZ)^MSbar
         4     9.11876000E+01  # m_Z(pole)
         5     4.20000000E+00  # m_b(m_b), MSbar
         6     1.72900000E+02  # m_t(pole)
         7     1.77700000E+00  # m_tau(pole)
Block gauge Q=  1.00000000E+03  # (SUSY scale)
   1    3.63558723E-01  # g'(Q)^DRbar
   2    6.48008465E-01  # g(Q)^DRbar
   3    1.08420411E+00  # g3(Q)^DRbar
Block Yu Q=  1.00000000E+03  # (SUSY scale)
  1  1     8.45240368E-06   # Y_u(Q)^DRbar
  2  2     3.38096209E-03   # Y_c(Q)^DRbar
  3  3     8.69011384E-01   # Y_t(Q)^DRbar
Block Yd Q=  1.00000000E+03  # (SUSY scale)
  1  1     1.87526166E-04   # Y_d(Q)^DRbar
  2  2     3.21473468E-03   # Y_s(Q)^DRbar
  3  3     1.36243541E-01   # Y_b(Q)^DRbar
Block Ye Q=  1.00000000E+03  # (SUSY scale)
  1  1     2.97376686E-05   # Y_e(Q)^DRbar
  2  2     6.14878832E-03   # Y_mu(Q)^DRbar
  3  3     1.03435694E-01   # Y_tau(Q)^DRbar
Block Au Q=  1.00000000E+03  # (SUSY scale)
  1  1    -6.62152869E+02   # A_u(Q)^DRbar
  2  2    -6.62149555E+02   # A_c(Q)^DRbar
  3  3    -4.94379793E+02   # A_t(Q)^DRbar
Block Ad Q=  1.00000000E+03  # (SUSY scale)
  1  1    -8.26954723E+02   # A_d(Q)^DRbar
  2  2    -8.26951548E+02   # A_s(Q)^DRbar
  3  3    -7.68002253E+02   # A_b(Q)^DRbar
Block Ae Q=  1.00000000E+03  # (SUSY scale)
  1  1    -2.51024587E+02   # A_e(Q)^DRbar
  2  2    -2.51018278E+02   # A_mu(Q)^DRbar
  3  3    -2.49239404E+02   # A_tau(Q)^DRbar
Block MSOFT Q=  1.00000000E+03  # soft SUSY breaking masses at Q
   1    1.03009431E+02  # M_1
   2    1.92799497E+02  # M_2
   3    5.71240949E+02  # M_3
  21    3.24570532E+04  # M^2_(H,d)
  22   -1.14490580E+05  # M^2_(H,u)
  31    1.94385153E+02  # M_(L,11)
  32    1.94382125E+02  # M_(L,22)
  33    1.93529593E+02  # M_(L,33)
  34    1.35773450E+02  # M_(E,11)
  35    1.35764644E+02  # M_(E,22)
  36    1.33266493E+02  # M_(E,33)
  41    5.30027343E+02  # M_(Q,11)
  42    5.30025694E+02  # M_(Q,22)
  43    4.83928753E+02  # M_(Q,33)
  44    5.11686672E+02  # M_(U,11)
  45    5.11685011E+02  # M_(U,22)
  46    4.11386927E+02  # M_(U,33)
  47    5.09519331E+02  # M_(D,11)
  48    5.09517529E+02  # M_(D,22)
  49    5.06449132E+02  # M_(D,33)
Block MASS  # Mass spectrum
#   PDG code      mass          particle
         4     1.20000000E+00  # m_c(m_c), MSbar
         5     4.20000000E+00  # m_b(m_b), MSbar
         6     1.72900000E+02  # m_t(pole)
        23     9.11876000E+01  # m_Z(pole)
        24     8.03921300E+01  # W+
        15     1.77700000E+00  # m_tau(pole)
        25     1.09858339E+02  # h0
        35     3.97604285E+02  # H0
        36     3.97236622E+02  # A0
        37     4.05736398E+02  # H+
   1000001     5.74013394E+02  # ~d_L
   2000001     5.51043147E+02  # ~d_R
   1000002     5.68603616E+02  # ~u_L
   2000002     5.51329736E+02  # ~u_R
   1000003     5.74013785E+02  # ~s_L
   2000003     5.51038690E+02  # ~s_R
   1000004     5.68612072E+02  # ~c_L
   2000004     5.51317946E+02  # ~c_R
   1000005     5.18535983E+02  # ~b_1
   2000005     5.50771680E+02  # ~b_2
   1000006     4.01575896E+02  # ~t_1
   2000006     5.90990462E+02  # ~t_2
   1000011     2.02599981E+02  # ~e_L-
   2000011     1.44097520E+02  # ~e_R-
   1000012     1.86350626E+02  # ~nu_eL
   1000013     2.02617191E+02  # ~mu_L-
   2000013     1.44059689E+02  # ~mu_R-
   1000014     1.86347081E+02  # ~nu_muL
   1000015     1.33932776E+02  # ~tau_1-
   2000015     2.06796188E+02  # ~tau_2-
   1000016     1.85346565E+02  # ~nu_tauL
   1000021     6.07485383E+02  # ~g
   1000022     9.70923831E+01  # ~chi_10
   1000023     1.80801830E+02  # ~chi_20
   1000025    -3.62535193E+02  # ~chi_30
   1000035     3.79958732E+02  # ~chi_40
   1000024     1.80399578E+02  # ~chi_1+
   1000037     3.81031480E+02  # ~chi_2+
# Higgs mixing
Block alpha # Effective Higgs mixing angle
          -1.11175463E-01   # alpha
Block Hmix Q=  1.00000000E+03  # Higgs mixing parameters
   1    3.56875741E+02  # mu
   2    1.00000000E+01  # tan[beta](Q)
   3    2.43245606E+02  # v(Q)
   4    1.28972248E+05  # m^2_A(Q)
Block stopmix  # stop mixing matrix
   1  1     5.59652186E-01   # R_st(1,1)
   1  2     8.28727597E-01   # R_st(1,2)
   2  1    -8.28727597E-01   # R_st(2,1)
   2  2     5.59652186E-01   # R_st(2,2)
Block sbotmix  # sbottom mixing matrix
   1  1     9.20745206E-01   # R_sb(1,1)
   1  2     3.90164408E-01   # R_sb(1,2)
   2  1    -3.90164408E-01   # R_sb(2,1)
   2  2     9.20745206E-01   # R_sb(2,2)
Block staumix  # stau mixing matrix
   1  1     2.94347670E-01   # R_sta(1,1)
   1  2     9.55698409E-01   # R_sta(1,2)
   2  1    -9.55698409E-01   # R_sta(2,1)
   2  2     2.94347670E-01   # R_sta(2,2)
Block Nmix  # neutralino/neutrino mixing matrix
   1  1    -9.85330294E-01   # N(1,1)  
   1  2     5.94464489E-02   # N(1,2)  
   1  3    -1.50054525E-01   # N(1,3)  
   1  4     5.54434000E-02   # N(1,4)  
   2  1    -1.06942735E-01   # N(2,1)  
   2  2    -9.44016112E-01   # N(2,2)  
   2  3     2.71177619E-01   # N(2,3)  
   2  4    -1.54465307E-01   # N(2,4)  
   3  1    -6.04828144E-02   # N(3,1)  
   3  2     9.03925001E-02   # N(3,2)  
   3  3     6.95424868E-01   # N(3,3)  
   3  4     7.10320546E-01   # N(3,4)  
   4  1    -1.18445313E-01   # N(4,1)  
   4  2     3.11655091E-01   # N(4,2)  
   4  3     6.48329076E-01   # N(4,3)  
   4  4    -6.84478795E-01   # N(4,4)  
Block Umix  # chargino U mixing matrix
   1  1    -9.14089127E-01   # U(1,1)
   1  2     4.05513338E-01   # U(1,2)
   2  1     4.05513338E-01   # U(2,1)
   2  2     9.14089127E-01   # U(2,2)
Block Vmix  # chargino V mixing matrix
   1  1    -9.72143160E-01   # V(1,1)
   1  2     2.34387876E-01   # V(1,2)
   2  1     2.34387876E-01   # V(2,1)
   2  2     9.72143160E-01   # V(2,2)
DECAY   2000011     2.19337211E-01   # ~e_R-
#    BR                NDA      ID1      ID2
     1.00000000E+00    2     1000022        11   # BR(~e_R- -> chi_10 e-)
DECAY   1000011     2.18283150E-01   # ~e_L-
#    BR                NDA      ID1      ID2
     5.59984094E-01    2     1000022        11   # BR(~e_L- -> chi_10 e-)
     1.62013560E-01    2     1000023        11   # BR(~e_L- -> chi_20 e-)
     2.78002346E-01    2    -1000024        12   # BR(~e_L- -> chi_1- nu_e)
DECAY   2000013     2.19028689E-01   # ~mu_R-
#    BR                NDA      ID1      ID2
     1.00000000E+00    2     1000022        13   # BR(~mu_R- -> chi_10 mu-)
DECAY   1000013     2.18560365E-01   # ~mu_L-
#    BR                NDA      ID1      ID2
     5.60192365E-01    2     1000022        13   # BR(~mu_L- -> chi_10 mu-)
     1.61939015E-01    2     1000023        13   # BR(~mu_L- -> chi_20 mu-)
     2.77868621E-01    2    -1000024        14   # BR(~mu_L- -> chi_1- nu_mu)
DECAY   1000015     1.45882655E-01   # ~tau_1-
#    BR                NDA      ID1      ID2
     1.00000000E+00    2     1000022        15   # BR(~tau_1- -> chi_10 tau-)
DECAY   2000015     2.79531781E-01   # ~tau_2-
#    BR                NDA      ID1      ID2
     5.90995115E-01    2     1000022        15   # BR(~tau_2- -> chi_10 tau-)
     1.51220907E-01    2     1000023        15   # BR(~tau_2- -> chi_20 tau-)
     2.57783978E-01    2    -1000024        16   # BR(~tau_2- -> chi_1- nu_tau)
DECAY   1000012     1.62773681E-01   # ~nu_eL
#    BR                NDA      ID1      ID2
     9.51435514E-01    2     1000022        12   # BR(~nu_eL -> chi_10 nu_e)
     1.28616380E-02    2     1000023        12   # BR(~nu_eL -> chi_20 nu_e)
     3.57028485E-02    2     1000024        11   # BR(~nu_eL -> chi_1+ e-)
DECAY   1000014     1.62755389E-01   # ~nu_muL
#    BR                NDA      ID1      ID2
     9.51497367E-01    2     1000022        14   # BR(~nu_muL -> chi_10 nu_mu)
     1.28471388E-02    2     1000023        14   # BR(~nu_muL -> chi_20 nu_mu)
     3.56554942E-02    2     1000024        13   # BR(~nu_muL -> chi_1+ mu-)
DECAY   1000016     1.57828905E-01   # ~nu_tauL
#    BR                NDA      ID1      ID2
     9.68071729E-01    2     1000022        16   # BR(~nu_tauL -> chi_10 nu_tau)
     8.99443623E-03    2     1000023        16   # BR(~nu_tauL -> chi_20 nu_tau)
     2.29338348E-02    2     1000024        15   # BR(~nu_tauL -> chi_1+ tau-)
DECAY   2000001     2.98066604E-01   # ~d_R
#    BR                NDA      ID1      ID2
     9.84712683E-01    2     1000022         1   # BR(~d_R -> chi_10 d)
     9.84059850E-03    2     1000023         1   # BR(~d_R -> chi_20 d)
     1.27129893E-03    2     1000025         1   # BR(~d_R -> chi_30 d)
     4.17015613E-03    2     1000035         1   # BR(~d_R -> chi_40 d)
DECAY   1000001     5.38980335E+00   # ~d_L
#    BR                NDA      ID1      ID2
     2.49325505E-02    2     1000022         1   # BR(~d_L -> chi_10 d)
     3.08187855E-01    2     1000023         1   # BR(~d_L -> chi_20 d)
     1.66261575E-03    2     1000025         1   # BR(~d_L -> chi_30 d)
     1.56469893E-02    2     1000035         1   # BR(~d_L -> chi_40 d)
     6.03793367E-01    2    -1000024         2   # BR(~d_L -> chi_1- u)
     4.57766228E-02    2    -1000037         2   # BR(~d_L -> chi_2- u)
DECAY   2000003     2.98769977E-01   # ~s_R
#    BR                NDA      ID1      ID2
     9.82429628E-01    2     1000022         3   # BR(~s_R -> chi_10 s)
     1.05740849E-02    2     1000023         3   # BR(~s_R -> chi_20 s)
     1.29916032E-03    2     1000025         3   # BR(~s_R -> chi_30 s)
     4.15432998E-03    2     1000035         3   # BR(~s_R -> chi_40 s)
     1.54191405E-03    2    -1000024         4   # BR(~s_R -> chi_1- c)
DECAY   1000003     5.38921672E+00   # ~s_L
#    BR                NDA      ID1      ID2
     2.49335944E-02    2     1000022         3   # BR(~s_L -> chi_10 s)
     3.08179569E-01    2     1000023         3   # BR(~s_L -> chi_20 s)
     1.66833626E-03    2     1000025         3   # BR(~s_L -> chi_30 s)
     1.56551497E-02    2     1000035         3   # BR(~s_L -> chi_40 s)
     6.03764403E-01    2    -1000024         4   # BR(~s_L -> chi_1- c)
     4.57989480E-02    2    -1000037         4   # BR(~s_L -> chi_2- c)
DECAY   1000005     3.82378429E+00   # ~b_1
#    BR                NDA      ID1      ID2
     4.87088399E-02    2     1000022         5   # BR(~b_1 -> chi_10 b)
     3.41352021E-01    2     1000023         5   # BR(~b_1 -> chi_20 b)
     4.88626942E-03    2     1000025         5   # BR(~b_1 -> chi_30 b)
     9.88858347E-03    2     1000035         5   # BR(~b_1 -> chi_40 b)
     4.43192289E-01    2    -1000024         6   # BR(~b_1 -> chi_1- t)
     1.51971997E-01    2     1000006       -24   # BR(~b_1 -> ~t_1 W-)
DECAY   2000005     1.02623647E+00   # ~b_2
#    BR                NDA      ID1      ID2
     2.24421399E-01    2     1000022         5   # BR(~b_2 -> chi_10 b)
     1.54167024E-01    2     1000023         5   # BR(~b_2 -> chi_20 b)
     4.49182272E-02    2     1000025         5   # BR(~b_2 -> chi_30 b)
     6.74492981E-02    2     1000035         5   # BR(~b_2 -> chi_40 b)
     2.04133510E-01    2    -1000024         6   # BR(~b_2 -> chi_1- t)
     3.04910541E-01    2     1000006       -24   # BR(~b_2 -> ~t_1 W-)
DECAY   2000002     1.19296982E+00   # ~u_R
#    BR                NDA      ID1      ID2
     9.84709329E-01    2     1000022         2   # BR(~u_R -> chi_10 u)
     9.83979290E-03    2     1000023         2   # BR(~u_R -> chi_20 u)
     1.27312198E-03    2     1000025         2   # BR(~u_R -> chi_30 u)
     4.17774506E-03    2     1000035         2   # BR(~u_R -> chi_40 u)
DECAY   1000002     5.59458914E+00   # ~u_L
#    BR                NDA      ID1      ID2
     6.23437703E-03    2     1000022         2   # BR(~u_L -> chi_10 u)
     3.18776345E-01    2     1000023         2   # BR(~u_L -> chi_20 u)
     9.35114884E-04    2     1000025         2   # BR(~u_L -> chi_30 u)
     1.08992379E-02    2     1000035         2   # BR(~u_L -> chi_40 u)
     6.48996482E-01    2     1000024         1   # BR(~u_L -> chi_1+ d)
     1.41584427E-02    2     1000037         1   # BR(~u_L -> chi_2+ d)
DECAY   2000004     1.19539368E+00   # ~c_R
#    BR                NDA      ID1      ID2
     9.82206881E-01    2     1000022         4   # BR(~c_R -> chi_10 c)
     1.06404255E-02    2     1000023         4   # BR(~c_R -> chi_20 c)
     1.30927931E-03    2     1000025         4   # BR(~c_R -> chi_30 c)
     4.15615480E-03    2     1000035         4   # BR(~c_R -> chi_40 c)
     1.68716279E-03    2     1000024         3   # BR(~c_R -> chi_1+ s)
DECAY   1000004     5.59229509E+00   # ~c_L
#    BR                NDA      ID1      ID2
     6.34153032E-03    2     1000022         4   # BR(~c_L -> chi_10 c)
     3.18726843E-01    2     1000023         4   # BR(~c_L -> chi_20 c)
     9.35304696E-04    2     1000025         4   # BR(~c_L -> chi_30 c)
     1.09163024E-02    2     1000035         4   # BR(~c_L -> chi_40 c)
     6.48902701E-01    2     1000024         3   # BR(~c_L -> chi_1+ s)
     1.41773181E-02    2     1000037         3   # BR(~c_L -> chi_2+ s)
DECAY   1000006     2.09522800E+00   # ~t_1
#    BR                NDA      ID1      ID2
     1.94685376E-01    2     1000022         6   # BR(~t_1 -> chi_10 t)
     1.21691481E-01    2     1000023         6   # BR(~t_1 -> chi_20 t)
     6.61490379E-01    2     1000024         5   # BR(~t_1 -> chi_1+ b)
     1.35691404E-02    2     1000037         5   # BR(~t_1 -> chi_2+ b)
     1.95594303E-04    2     1000022         4   # BR(~t_1 -> chi_10 c)
     8.36362487E-03    2     1000023         4   # BR(~t_1 -> chi_20 c)
DECAY   2000006     7.69046278E+00   # ~t_2
#    BR                NDA      ID1      ID2
     3.03470620E-02    2     1000022         6   # BR(~t_2 -> chi_10 t)
     8.57352417E-02    2     1000023         6   # BR(~t_2 -> chi_20 t)
     4.58652268E-02    2     1000025         6   # BR(~t_2 -> chi_30 t)
     2.04076344E-01    2     1000035         6   # BR(~t_2 -> chi_40 t)
     2.11733971E-01    2     1000024         5   # BR(~t_2 -> chi_1+ b)
     1.93595286E-01    2     1000037         5   # BR(~t_2 -> chi_2+ b)
     1.97703413E-01    2     1000006        23   # BR(~t_2 -> ~t_1 Z)
     3.09434549E-02    2     1000006        25   # BR(~t_2 -> ~t_1 h0)
DECAY   1000024     1.75732019E-02   # chi_1+
#    BR                NDA      ID1      ID2
     2.88929701E-03    2    -2000013        14   # BR(chi_1+ -> ~mu_R+ nu_mu)
     9.45836403E-01    2    -1000015        16   # BR(chi_1+ -> ~tau_1+ nu_tau)
     4.45758615E-02    2     1000022        24   # BR(chi_1+ -> chi_10 W+)
#    BR                NDA      ID1      ID2       ID3
     2.22257671E-03    3     1000022       -11        12   # BR(chi_1+ -> chi_10 e+ nu_e)
     2.22260240E-03    3     1000022       -13        14   # BR(chi_1+ -> chi_10 mu+ nu_mu)
     2.24984683E-03    3     1000022       -15        16   # BR(chi_1+ -> chi_10 tau+ nu_tau)
DECAY   1000037     2.57775657E+00   # chi_2+
#    BR                NDA      ID1      ID2
     5.22357408E-02    2    -1000011        12   # BR(chi_2+ -> ~e_L+ nu_e)
     5.22526048E-02    2    -1000013        14   # BR(chi_2+ -> ~mu_L+ nu_mu)
     1.91267323E-04    2    -1000015        16   # BR(chi_2+ -> ~tau_1+ nu_tau)
     5.69439617E-02    2    -2000015        16   # BR(chi_2+ -> ~tau_2+ nu_tau)
     1.96338328E-02    2     1000012       -11   # BR(chi_2+ -> ~nu_eL e+)
     1.96601282E-02    2     1000014       -13   # BR(chi_2+ -> ~nu_muL mu+)
     2.71254325E-02    2     1000016       -15   # BR(chi_2+ -> ~nu_tauL tau+)
     6.34160425E-02    2     1000022        24   # BR(chi_2+ -> chi_10 W+)
     2.98133718E-01    2     1000023        24   # BR(chi_2+ -> chi_20 W+)
     2.38016460E-01    2     1000024        23   # BR(chi_2+ -> chi_1+ Z)
     1.72099488E-01    2     1000024        25   # BR(chi_2+ -> chi_1+ h0)
#    BR                NDA      ID1      ID2       ID3
     1.00395680E-04    3     1000022        -5         6   # BR(chi_2+ -> chi_10 b t)
     1.64180864E-04    3     1000024        -5         5   # BR(chi_2+ -> chi_1+ b b)
DECAY   1000022     0.00000000E+00   # chi_10
DECAY   1000023     2.37643488E-02   # chi_20
#    BR                NDA      ID1      ID2
     3.04494659E-02    2     2000011       -11   # BR(chi_20 -> ~e_R- e+)
     3.04494659E-02    2    -2000011        11   # BR(chi_20 -> ~e_R+ e-)
     3.17047619E-02    2     2000013       -13   # BR(chi_20 -> ~mu_R- mu+)
     3.17047619E-02    2    -2000013        13   # BR(chi_20 -> ~mu_R+ mu-)
     4.35781377E-01    2     1000015       -15   # BR(chi_20 -> ~tau_1- tau+)
     4.35781377E-01    2    -1000015        15   # BR(chi_20 -> ~tau_1+ tau-)
#    BR                NDA      ID1      ID2       ID3
     1.51270770E-04    3     1000022        -2         2   # BR(chi_20 -> chi_10 u u)
     1.51034897E-04    3     1000022        -4         4   # BR(chi_20 -> chi_10 c c)
     2.02878804E-04    3     1000022        -1         1   # BR(chi_20 -> chi_10 d d)
     2.02877929E-04    3     1000022        -3         3   # BR(chi_20 -> chi_10 s s)
     2.08177140E-04    3     1000022        -5         5   # BR(chi_20 -> chi_10 b b)
     2.41810649E-03    3     1000022       -12        16   # BR(chi_20 -> chi_10 nu_i nu_i)
     2.81931763E-04    3     1000022       -11        11   # BR(chi_20 -> chi_10 e+ e-)
     2.81731841E-04    3     1000022       -13        13   # BR(chi_20 -> chi_10 mu+ mu-)
     2.28616313E-04    3     1000022       -15        15   # BR(chi_20 -> chi_10 tau+ tau-)
DECAY   1000025     1.93605045E+00   # chi_30
#    BR                NDA      ID1      ID2
     1.27707883E-03    2     2000011       -11   # BR(chi_30 -> ~e_R- e+)
     1.27707883E-03    2    -2000011        11   # BR(chi_30 -> ~e_R+ e-)
     5.89559904E-04    2     1000011       -11   # BR(chi_30 -> ~e_L- e+)
     5.89559904E-04    2    -1000011        11   # BR(chi_30 -> ~e_L+ e-)
     1.28807669E-03    2     2000013       -13   # BR(chi_30 -> ~mu_R- mu+)
     1.28807669E-03    2    -2000013        13   # BR(chi_30 -> ~mu_R+ mu-)
     6.14701090E-04    2     1000013       -13   # BR(chi_30 -> ~mu_L- mu+)
     6.14701090E-04    2    -1000013        13   # BR(chi_30 -> ~mu_L+ mu-)
     5.29171579E-03    2     1000015       -15   # BR(chi_30 -> ~tau_1- tau+)
     5.29171579E-03    2    -1000015        15   # BR(chi_30 -> ~tau_1+ tau-)
     6.93519313E-03    2     2000015       -15   # BR(chi_30 -> ~tau_2- tau+)
     6.93519313E-03    2    -2000015        15   # BR(chi_30 -> ~tau_2+ tau-)
     3.27255143E-03    2     1000012       -12   # BR(chi_30 -> ~nu_eL nu_e^*)
     3.27255143E-03    2    -1000012        12   # BR(chi_30 -> ~nu_eL^* nu_e)
     3.27264084E-03    2     1000014       -14   # BR(chi_30 -> ~nu_muL nu_mu^*)
     3.27264084E-03    2    -1000014        14   # BR(chi_30 -> ~nu_muL^* nu_mu)
     3.29785914E-03    2     1000016       -16   # BR(chi_30 -> ~nu_tauL nu_tau^*)
     3.29785914E-03    2    -1000016        16   # BR(chi_30 -> ~nu_tauL^* nu_tau)
     2.94815967E-01    2     1000024       -24   # BR(chi_30 -> chi_1+ W-)
     2.94815967E-01    2    -1000024        24   # BR(chi_30 -> chi_1- W+)
     1.17618433E-01    2     1000022        23   # BR(chi_30 -> chi_10 Z)
     2.06690370E-01    2     1000023        23   # BR(chi_30 -> chi_20 Z)
     2.21195652E-02    2     1000022        25   # BR(chi_30 -> chi_10 h0)
     1.22397909E-02    2     1000023        25   # BR(chi_30 -> chi_20 h0)
DECAY   1000035     2.54022283E+00   # chi_40
#    BR                NDA      ID1      ID2
     4.04485333E-03    2     2000011       -11   # BR(chi_40 -> ~e_R- e+)
     4.04485333E-03    2    -2000011        11   # BR(chi_40 -> ~e_R+ e-)
     9.62021472E-03    2     1000011       -11   # BR(chi_40 -> ~e_L- e+)
     9.62021472E-03    2    -1000011        11   # BR(chi_40 -> ~e_L+ e-)
     4.03601936E-03    2     2000013       -13   # BR(chi_40 -> ~mu_R- mu+)
     4.03601936E-03    2    -2000013        13   # BR(chi_40 -> ~mu_R+ mu-)
     9.64910850E-03    2     1000013       -13   # BR(chi_40 -> ~mu_L- mu+)
     9.64910850E-03    2    -1000013        13   # BR(chi_40 -> ~mu_L+ mu-)
     2.78590417E-03    2     1000015       -15   # BR(chi_40 -> ~tau_1- tau+)
     2.78590417E-03    2    -1000015        15   # BR(chi_40 -> ~tau_1+ tau-)
     1.68530082E-02    2     2000015       -15   # BR(chi_40 -> ~tau_2- tau+)
     1.68530082E-02    2    -2000015        15   # BR(chi_40 -> ~tau_2+ tau-)
     2.57594097E-02    2     1000012       -12   # BR(chi_40 -> ~nu_eL nu_e^*)
     2.57594097E-02    2    -1000012        12   # BR(chi_40 -> ~nu_eL^* nu_e)
     2.57600305E-02    2     1000014       -14   # BR(chi_40 -> ~nu_muL nu_mu^*)
     2.57600305E-02    2    -1000014        14   # BR(chi_40 -> ~nu_muL^* nu_mu)
     2.59350711E-02    2     1000016       -16   # BR(chi_40 -> ~nu_tauL nu_tau^*)
     2.59350711E-02    2    -1000016        16   # BR(chi_40 -> ~nu_tauL^* nu_tau)
     2.44500519E-01    2     1000024       -24   # BR(chi_40 -> chi_1+ W-)
     2.44500519E-01    2    -1000024        24   # BR(chi_40 -> chi_1- W+)
     2.21677705E-02    2     1000022        23   # BR(chi_40 -> chi_10 Z)
     1.96520721E-02    2     1000023        23   # BR(chi_40 -> chi_20 Z)
     7.34180606E-02    2     1000022        25   # BR(chi_40 -> chi_10 h0)
     1.46823816E-01    2     1000023        25   # BR(chi_40 -> chi_20 h0)
DECAY   1000021     4.53085278E+00   # ~g
#    BR                NDA      ID1      ID2
     4.87472343E-02    2     2000002        -2   # BR(~g -> ~u_R u^*)
     4.87472343E-02    2    -2000002         2   # BR(~g -> ~u_R u)
     2.40717224E-02    2     1000002        -2   # BR(~g -> ~u_L u^*)
     2.40717224E-02    2    -1000002         2   # BR(~g -> ~u_L u)
     4.87067391E-02    2     2000004        -4   # BR(~g -> ~c_R c^*)
     4.87067391E-02    2    -2000004         4   # BR(~g -> ~c_R c)
     2.40859166E-02    2     1000004        -4   # BR(~g -> ~c_L c^*)
     2.40859166E-02    2    -1000004         4   # BR(~g -> ~c_L c)
     5.47850410E-02    2     1000006        -6   # BR(~g -> ~t_1 t^*)
     5.47850410E-02    2    -1000006         6   # BR(~g -> ~t_1 t)
     4.92217015E-02    2     2000001        -1   # BR(~g -> ~d_R d^*)
     4.92217015E-02    2    -2000001         1   # BR(~g -> ~d_R d)
     1.80038138E-02    2     1000001        -1   # BR(~g -> ~d_L d^*)
     1.80038138E-02    2    -1000001         1   # BR(~g -> ~d_L d)
     4.92267956E-02    2     2000003        -3   # BR(~g -> ~s_R s^*)
     4.92267956E-02    2    -2000003         3   # BR(~g -> ~s_R s)
     1.80046262E-02    2     1000003        -3   # BR(~g -> ~s_L s^*)
     1.80046262E-02    2    -1000003         3   # BR(~g -> ~s_L s)
     1.11150162E-01    2     1000005        -5   # BR(~g -> ~b_1 b^*)
     1.11150162E-01    2    -1000005         5   # BR(~g -> ~b_1 b)
     5.23144114E-02    2     2000005        -5   # BR(~g -> ~b_2 b^*)
     5.23144114E-02    2    -2000005         5   # BR(~g -> ~b_2 b)
     1.12708397E-03    2     1000006        -4   # BR(~g -> ~t_1 c^*)
     1.12708397E-03    2    -1000006         4   # BR(~g -> ~t_1 c)
#    BR                NDA      ID1      ID2       ID3
     1.51083873E-04    3     1000024         5        -6   # BR(~g -> chi_1+ b t)
     1.51083873E-04    3    -1000024        -5         6   # BR(~g -> chi_1- b t)
     2.80490824E-04    3     1000037         5        -6   # BR(~g -> chi_2+ b t)
     2.80490824E-04    3    -1000037        -5         6   # BR(~g -> chi_2- b t)
DECAY        25     2.24502087E-03   # h0        
#    BR                NDA      ID1      ID2
     4.53051247E-04    2         -13        13   # BR(h0 -> mu+ mu-)
     1.28005722E-01    2         -15        15   # BR(h0 -> tau+ tau-)
     4.18571434E-04    2          -3         3   # BR(h0 -> s s)
     7.49014290E-01    2          -5         5   # BR(h0 -> b b)
     3.71432100E-02    2          -4         4   # BR(h0 -> c c)
     3.47729405E-02    2          21        21   # BR(h0 -> g g)
     2.94894229E-03    2          22        22   # BR(h0 -> photon photon)
# writing decays into V V* as 3-body decays
#    BR                NDA      ID1      ID2       ID3
     2.24817536E-03    3          24        11       -12   # BR(h0 -> W+ W-* -> W+ e- nu_e)
     2.24817536E-03    3         -24       -11        12   # BR(h0 -> W- W+* -> W- e+ nu_e)
     2.24817536E-03    3          24        13       -14   # BR(h0 -> W+ W-* -> W+ mu- nu_mu)
     2.24817536E-03    3         -24       -13        14   # BR(h0 -> W- W+* -> W- mu+ nu_mu)
     2.24817536E-03    3          24        15       -16   # BR(h0 -> W+ W-* -> W+ tau- nu_tau)
     2.24817536E-03    3         -24       -15        16   # BR(h0 -> W- W+* -> W- tau+ nu_tau)
     7.46484589E-03    3          24        -2         1   # BR(h0 -> W+ W-* -> W+ u d)
     7.46484589E-03    3         -24         2        -1   # BR(h0 -> W- W+* -> W- u d)
     4.03485257E-04    3          24        -4         1   # BR(h0 -> W+ W-* -> W+ c d)
     4.03485257E-04    3         -24         4        -1   # BR(h0 -> W- W+* -> W- c d)
     4.03672708E-04    3          24        -2         3   # BR(h0 -> W+ W-* -> W+ u s)
     4.03672708E-04    3         -24         2        -3   # BR(h0 -> W- W+* -> W- u s)
     7.45164158E-03    3          24        -4         3   # BR(h0 -> W+ W-* -> W+ c s)
     7.45164158E-03    3         -24         4        -3   # BR(h0 -> W- W+* -> W- c s)
     9.51594621E-08    3          24        -2         5   # BR(h0 -> W+ W-* -> W+ u b)
     9.51594621E-08    3         -24         2        -5   # BR(h0 -> W- W+* -> W- u b)
     1.34869228E-05    3          24        -4         5   # BR(h0 -> W+ W-* -> W+ c b)
     1.34869228E-05    3         -24         4        -5   # BR(h0 -> W- W+* -> W- c b)
     4.55619667E-04    3          23        12       -12   # BR(h0 -> Z0 nu_i nu_i)
     7.97334417E-05    3          23        11       -11   # BR(h0 -> Z0 e- e+)
     7.97334417E-05    3          23        13       -13   # BR(h0 -> Z0 mu- mu+)
     6.83429501E-05    3          23        15       -15   # BR(h0 -> Z0 tau- tau+)
     3.18933767E-04    3          23         1        -1   # BR(h0 -> Z0 d d)
     3.18933767E-04    3          23         3        -3   # BR(h0 -> Z0 s s)
     3.18933767E-04    3          23         5        -5   # BR(h0 -> Z0 b b)
     3.18933767E-04    3          23         2        -2   # BR(h0 -> Z0 u u)
     3.18933767E-04    3          23         4        -4   # BR(h0 -> Z0 c c)
DECAY        35     7.68017973E-01   # H0        
#    BR                NDA      ID1      ID2
     3.84600417E-04    2         -13        13   # BR(H0 -> mu+ mu-)
     1.08822742E-01    2         -15        15   # BR(H0 -> tau+ tau-)
     3.59833229E-04    2          -3         3   # BR(H0 -> s s)
     6.46245834E-01    2          -5         5   # BR(H0 -> b b)
     6.13760440E-02    2          -6         6   # BR(H0 -> t t)
     4.86651809E-04    2    -2000011   2000011   # BR(H0 -> ~e_R+ ~e_R-)
     4.97733502E-04    2    -2000013   2000013   # BR(H0 -> ~mu_R+ ~mu_R-)
     6.51715731E-03    2    -1000015   1000015   # BR(H0 -> ~tau_1+ ~tau_1-)
     5.29497949E-03    2    -1000015   2000015   # BR(H0 -> ~tau_1+ ~tau_2-)
     5.29497949E-03    2     1000015  -2000015   # BR(H0 -> ~tau_1- ~tau_2+)
     1.07327637E-03    2    -1000012   1000012   # BR(H0 -> ~nu_eL ~nu_eL)
     1.07342420E-03    2    -1000014   1000014   # BR(H0 -> ~nu_muL ~nu_muL)
     1.11425550E-03    2    -1000016   1000016   # BR(H0 -> ~nu_tauL ~nu_tauL)
     2.20219338E-02    2     1000022   1000022   # BR(H0 -> chi_10 chi_10)
     6.10239006E-02    2     1000022   1000023   # BR(H0 -> chi_10 chi_20)
     1.54741673E-02    2     1000023   1000023   # BR(H0 -> chi_20 chi_20)
     4.34567093E-02    2    -1000024   1000024   # BR(H0 -> chi_1- chi_1+)
     2.18901941E-03    2          23        23   # BR(H0 -> Z0 Z0)
     4.49197430E-03    2          24       -24   # BR(H0 -> W- W+)
     1.21232705E-02    2          25        25   # BR(H0 -> h0 h0)
     6.17580701E-04    2          21        21   # BR(H0 -> g g)
DECAY        36     1.19136002E+00   # A0        
#    BR                NDA      ID1      ID2
     2.48309910E-04    2         -13        13   # BR(A0 -> mu+ mu-)
     7.02649128E-02    2         -15        15   # BR(A0 -> tau+ tau-)
     2.32317027E-04    2          -3         3   # BR(A0 -> s s)
     4.17278696E-01    2          -5         5   # BR(A0 -> b b)
     1.15539713E-01    2          -6         6   # BR(A0 -> t t)
     5.13126816E-03    2    -1000015   2000015   # BR(A0 -> ~tau_1+ ~tau_2-)
     5.13126816E-03    2     1000015  -2000015   # BR(A0 -> ~tau_1- ~tau_2+)
     2.18352613E-02    2     1000022   1000022   # BR(A0 -> chi_10 chi_10)
     9.01978452E-02    2     1000022   1000023   # BR(A0 -> chi_10 chi_20)
     7.32951097E-02    2     1000023   1000023   # BR(A0 -> chi_20 chi_20)
     1.99335767E-01    2    -1000024   1000024   # BR(A0 -> chi_1- chi_1+)
     1.47093172E-03    2          23        25   # BR(A0 -> Z0 h0)
DECAY       -37     6.64789149E-01   # H-        
#    BR                NDA      ID1      ID2
     4.54514605E-04    2          13       -14   # BR(H- -> nu_mu mu-)
     1.28615414E-01    2          15       -16   # BR(H- -> nu_tau tau-)
     3.76833779E-04    2           3        -4   # BR(H- -> c s)
     6.24449111E-01    2           5        -6   # BR(H- -> t b)
     1.02557910E-03    2     1000011  -1000012   # BR(H- -> ~e_L- ~nu_eL)
     1.01662114E-03    2     1000013  -1000014   # BR(H- -> ~mu_L- ~nu_muL)
     2.39072961E-02    2     1000015  -1000016   # BR(H- -> ~tau_1- ~nu_tauL)
     2.14779157E-01    2    -1000024   1000022   # BR(H- -> chi_1- chi_10)
     2.34460897E-03    2    -1000024   1000023   # BR(H- -> chi_1- chi_20)
     2.93866271E-03    2         -24        25   # BR(H- ->  W- h0)
Block SPhenoLowEnergy  # low energy observables
    1    3.32857219E-04   # BR(b -> s gamma)
    2    1.84379926E-06   # BR(b -> s mu+ mu-)
    3    4.60962315E-05   # BR(b -> s nu nu)
    4    5.29498543E-09   # BR(Bs -> mu+ mu-)
    5    9.79889445E-05   # BR(B_u -> tau nu)
    6    2.72133113E-01   # |Delta(M_Bd)| [ps^-1] 
    7    1.87991549E+01   # |Delta(M_Bs)| [ps^-1] 
   10    5.39336986E-14   # Delta(g-2)_electron
   11    2.67489730E-09   # Delta(g-2)_muon
   12    6.01527330E-07   # Delta(g-2)_tau
   13    0.00000000E+00   # electric dipole moment of the electron
   14    0.00000000E+00   # electric dipole moment of the muon
   15    0.00000000E+00   # electric dipole moment of the tau
   16    0.00000000E+00   # Br(mu -> e gamma)
   17    0.00000000E+00   # Br(tau -> e gamma)
   18    0.00000000E+00   # Br(tau -> mu gamma)
   19    0.00000000E+00   # Br(mu -> 3 e)
   20    0.00000000E+00   # Br(tau -> 3 e)
   21    0.00000000E+00   # Br(tau -> 3 mu)
   30    3.24997944E-04   # Delta(rho_parameter)
   40    0.00000000E+00   # BR(Z -> e mu)
   41    0.00000000E+00   # BR(Z -> e tau)
   42    0.00000000E+00   # BR(Z -> mu tau)
</slha>
<MGRunCard>
#*********************************************************************
#                       MadGraph/MadEvent                            *
#                  http://madgraph.hep.uiuc.edu                      *
#                                                                    *
#                        run_card.dat                                *
#                                                                    *
#  This file is used to set the parameters of the run.               *
#                                                                    *
#  Some notation/conventions:                                        *
#                                                                    *
#   Lines starting with a '# ' are info or comments                  *
#                                                                    *
#   mind the format:   value    = variable     ! comment             *
#*********************************************************************
#
#*******************                                                 
# Running parameters
#*******************                                                 
#                                                                    
#*********************************************************************
# Tag name for the run (one word)                                    *
#*********************************************************************
  'fermi'     = run_tag ! name of the run 
#*********************************************************************
# Run to generate the grid pack                                      *
#*********************************************************************
  .false.     = gridpack  !True = setting up the grid pack
#*********************************************************************
# Number of events and rnd seed                                      *
# Warning: Do not generate more than 100K event in a single run      *
#*********************************************************************
   1000       = nevents ! Number of unweighted events requested 
      23 = iseed   ! rnd seed (0=assigned automatically=default))
#*********************************************************************
# Collider type and energy                                           *
#*********************************************************************
        0     = lpp1  ! beam 1 type (0=NO PDF)
        0     = lpp2  ! beam 2 type (0=NO PDF)
      500     = ebeam1  ! beam 1 energy in GeV
      500     = ebeam2  ! beam 2 energy in GeV
#*********************************************************************
# Beam polarization from -100 (left-handed) to 100 (right-handed)    *
#*********************************************************************
        0     = polbeam1 ! beam polarization for beam 1
        0     = polbeam2 ! beam polarization for beam 2
#*********************************************************************
# PDF CHOICE: this automatically fixes also alpha_s and its evol.    *
#*********************************************************************
 'cteq6l1'    = pdlabel     ! PDF set                                     
#*********************************************************************
# Renormalization and factorization scales                           *
#*********************************************************************
 F        = fixed_ren_scale  ! if .true. use fixed ren scale
 F        = fixed_fac_scale  ! if .true. use fixed fac scale
 91.1880  = scale            ! fixed ren scale
 91.1880  = dsqrt_q2fact1    ! fixed fact scale for pdf1
 91.1880  = dsqrt_q2fact2    ! fixed fact scale for pdf2
 1        = scalefact        ! scale factor for event-by-event scales
#*********************************************************************
# Matching - Warning! ickkw > 1 is still beta
#*********************************************************************
 0        = ickkw            ! 0 no matching, 1 MLM, 2 CKKW matching
 1        = highestmult      ! for ickkw=2, highest mult group
 1        = ktscheme         ! for ickkw=1, 1 Durham kT, 2 Pythia pTE
 1        = alpsfact         ! scale factor for QCD emission vx
 F        = chcluster        ! cluster only according to channel diag
 T        = pdfwgt           ! for ickkw=1, perform pdf reweighting
#*********************************************************************
# Automatic ptj and mjj cuts if xqcut > 0
# (turn off for VBF and single top processes)
#**********************************************************
   T  = auto_ptj_mjj  ! Automatic setting of ptj and mjj
#**********************************************************
#                                                                    
#**********************************
# BW cutoff (M+/-bwcutoff*Gamma)
#**********************************
  15  = bwcutoff      ! (M+/-bwcutoff*Gamma)
#**********************************************************
# Apply pt/E/eta/dr/mij cuts on decay products or not
# (note that etmiss/ptll/ptheavy/ht/sorted cuts always apply)
#**********************************************************
   T  = cut_decays    ! Cut decay products 
#*************************************************************
# Number of helicities to sum per event (0 = all helicities)
# 0 gives more stable result, but longer run time (needed for
# long decay chains e.g.).
# Use >=2 if most helicities contribute, e.g. pure QCD.
#*************************************************************
   0  = nhel          ! Number of helicities used per event
#*******************                                                 
# Standard Cuts
#*******************                                                 
#                                                                    
#*********************************************************************
# Minimum and maximum pt's                                           *
#*********************************************************************
 20  = ptj       ! minimum pt for the jets 
  0  = ptb       ! minimum pt for the b 
 10  = pta       ! minimum pt for the photons 
 10  = ptl       ! minimum pt for the charged leptons 
  0  = misset    ! minimum missing Et (sum of neutrino's momenta)
  0  = ptheavy   ! minimum pt for one heavy final state
 1.0 = ptonium   ! minimum pt for the quarkonium states
 1d5 = ptjmax    ! maximum pt for the jets
 1d5 = ptbmax    ! maximum pt for the b
 1d5 = ptamax    ! maximum pt for the photons
 1d5 = ptlmax    ! maximum pt for the charged leptons
 1d5 = missetmax ! maximum missing Et (sum of neutrino's momenta)
#*********************************************************************
# Minimum and maximum E's (in the lab frame)                         *
#*********************************************************************
  0  = ej     ! minimum E for the jets 
  0  = eb     ! minimum E for the b 
  0  = ea     ! minimum E for the photons 
  0  = el     ! minimum E for the charged leptons 
 1d5  = ejmax ! maximum E for the jets
 1d5  = ebmax ! maximum E for the b
 1d5  = eamax ! maximum E for the photons
 1d5  = elmax ! maximum E for the charged leptons
#*********************************************************************
# Maximum and minimum rapidity                                       *
#*********************************************************************
   5  = etaj    ! max rap for the jets 
 1d2  = etab    ! max rap for the b 
 2.5  = etaa    ! max rap for the photons 
 2.5  = etal    ! max rap for the charged leptons 
 0.6  = etaonium ! max rap for the quarkonium states
 0d0  = etajmin ! min rap for the jets
 0d0  = etabmin ! min rap for the b
 0d0  = etaamin ! min rap for the photons
 0d0  = etalmin ! main rap for the charged leptons
#*********************************************************************
# Minimum and maximum DeltaR distance                                *
#*********************************************************************
 0.4 = drjj    ! min distance between jets 
 0   = drbb    ! min distance between b's 
 0.4 = drll    ! min distance between leptons 
 0.4 = draa    ! min distance between gammas 
 0   = drbj    ! min distance between b and jet 
 0.4 = draj    ! min distance between gamma and jet 
 0.4 = drjl    ! min distance between jet and lepton 
 0   = drab    ! min distance between gamma and b 
 0   = drbl    ! min distance between b and lepton 
 0.4 = dral    ! min distance between gamma and lepton 
 1d2 = drjjmax ! max distance between jets
 1d2 = drbbmax ! max distance between b's
 1d2 = drllmax ! max distance between leptons
 1d2 = draamax ! max distance between gammas
 1d2 = drbjmax ! max distance between b and jet
 1d2 = drajmax ! max distance between gamma and jet
 1d2 = drjlmax ! max distance between jet and lepton
 1d2 = drabmax ! max distance between gamma and b
 1d2 = drblmax ! max distance between b and lepton
 1d2 = dralmax ! maxdistance between gamma and lepton
#*********************************************************************
# Minimum and maximum invariant mass for pairs                       *
#*********************************************************************
 0   = mmjj    ! min invariant mass of a jet pair 
 0   = mmbb    ! min invariant mass of a b pair 
 0   = mmaa    ! min invariant mass of gamma gamma pair
 0   = mmll    ! min invariant mass of l+l- (same flavour) lepton pair
 1d5 = mmjjmax ! max invariant mass of a jet pair
 1d5 = mmbbmax ! max invariant mass of a b pair
 1d5 = mmaamax ! max invariant mass of gamma gamma pair
 1d5 = mmllmax ! max invariant mass of l+l- (same flavour) lepton pair
#*********************************************************************
# Minimum and maximum invariant mass for all letpons                 *
#*********************************************************************
 0   = mmnl    ! min invariant mass for all letpons (l+- and vl) 
 1d5 = mmnlmax ! max invariant mass for all letpons (l+- and vl) 
#*********************************************************************
# Minimum and maximum pt for 4-momenta sum of leptons                *
#*********************************************************************
 0   = ptllmin  ! Minimum pt for 4-momenta sum of leptons(l and vl)
 1d5 = ptllmax  ! Maximum pt for 4-momenta sum of leptons(l and vl)
#*********************************************************************
# Inclusive cuts                                                     *
#*********************************************************************
 0  = xptj ! minimum pt for at least one jet  
 0  = xptb ! minimum pt for at least one b 
 0  = xpta ! minimum pt for at least one photon 
 0  = xptl ! minimum pt for at least one charged lepton 
#*********************************************************************
# Control the pt's of the jets sorted by pt                          *
#*********************************************************************
 0   = ptj1min ! minimum pt for the leading jet in pt
 0   = ptj2min ! minimum pt for the second jet in pt
 0   = ptj3min ! minimum pt for the third jet in pt
 0   = ptj4min ! minimum pt for the fourth jet in pt
 1d5 = ptj1max ! maximum pt for the leading jet in pt 
 1d5 = ptj2max ! maximum pt for the second jet in pt
 1d5 = ptj3max ! maximum pt for the third jet in pt
 1d5 = ptj4max ! maximum pt for the fourth jet in pt
 0   = cutuse  ! reject event if fails any (0) / all (1) jet pt cuts
#*********************************************************************
# Control the Ht(k)=Sum of k leading jets                            *
#*********************************************************************
 0   = htjmin ! minimum jet HT=Sum(jet pt)
 1d5 = htjmax ! maximum jet HT=Sum(jet pt)
 0   = ihtmin  !inclusive Ht for all partons (including b)
 1d5 = ihtmax  !inclusive Ht for all partons (including b)
 0   = ht2min ! minimum Ht for the two leading jets
 0   = ht3min ! minimum Ht for the three leading jets
 0   = ht4min ! minimum Ht for the four leading jets
 1d5 = ht2max ! maximum Ht for the two leading jets
 1d5 = ht3max ! maximum Ht for the three leading jets
 1d5 = ht4max ! maximum Ht for the four leading jets
#*********************************************************************
# WBF cuts                                                           *
#*********************************************************************
 0   = xetamin ! minimum rapidity for two jets in the WBF case  
 0   = deltaeta ! minimum rapidity for two jets in the WBF case 
#*********************************************************************
# maximal pdg code for quark to be considered as a light jet         *
# (otherwise b cuts are applied)                                     *
#*********************************************************************
 4 = maxjetflavor    ! Maximum jet pdg code
#*********************************************************************
# Jet measure cuts                                                   *
#*********************************************************************
 0   = xqcut   ! minimum kt jet measure between partons
#*********************************************************************
</MGRunCard>
<MGGenerationInfo>
#  Number of Events        :        1617
#  Integrated weight (pb)  :  .14458E+00
#  Max wgt                 :  .10922E-03
#  Average wgt             :  .89415E-04
</MGGenerationInfo>
</header>
<init>
      -11       11  0.50000000000E+03  0.50000000000E+03 0 0     0     0 2  1
  0.14458449567E+00  0.47165000000E-03  0.10922220000E-03   0
</init>
<event>
 4   0  0.1092222E-03  0.2236068E+02  0.7957747E-01  0.1516063E+00
      -11   -1    0    0    0    0  0.00000000000E+00  0.00000000000E+00  0.50000000000E+03  0.50000000000E+03  0.00000000000E+00 0.  1.
       11   -1    0    0    0    0 -0.00000000000E+00 -0.00000000000E+00 -0.50000000000E+03  0.50000000000E+03  0.00000000000E+00 0. -1.
  1000024    1    1    2    0    0 -0.23680424285E+03  0.74685696339E+02  0.39471735405E+03  0.50000000000E+03  0.18039957800E+03 0.  1.
 -1000024    1    1    2    0    0  0.23680424285E+03 -0.74685696339E+02 -0.39471735405E+03  0.50000000000E+03  0.18039957800E+03 0. -1.
</event>
<event>
 4   0  0.1092222E-03  0.2236068E+02  0.7957747E-01  0.1516063E+00
      -11   -1    0    0    0    0  0.00000000000E+00  0.00000000000E+00  0.50000000000E+03  0.50000000000E+03  0.00000000000E+00 0.  1.
       11   -1    0    0    0    0 -0.00000000000E+00 -0.00000000000E+00 -0.50000000000E+03  0.50000000000E+03  0.00000000000E+00 0. -1.
  1000024    1    1    2    0    0  0.20075623017E+03 -0.37673947969E+03  0.18767070295E+03  0.50000000000E+03  0.18039957800E+03 0.  1.
 -1000024    1    1    2    0    0 -0.20075623017E+03  0.37673947969E+03 -0.18767070295E+03  0.50000000000E+03  0.18039957800E+03 0. -1.
</event>
<event>
 4   0  0.1092222E-03  0.2236068E+02  0.7957747E-01  0.1516063E+00
      -11   -1    0    0    0    0  0.00000000000E+00  0.00000000000E+00  0.50000000000E+03  0.50000000000E+03  0.00000000000E+00 0.  1.
       11   -1    0    0    0    0 -0.00000000000E+00 -0.00000000000E+00 -0.50000000000E+03  0.50000000000E+03  0.00000000000E+00 0. -1.
  1000024    1    1    2    0    0 -0.54431821595E+02 -0.41893265248E+03  0.19745531580E+03  0.50000000000E+03  0.18039957800E+03 0. -1.
 -1000024    1    1    2    0    0  0.54431821595E+02  0.41893265248E+03 -0.19745531580E+03  0.50000000000E+03  0.18039957800E+03 0.  1.
</event>
<event>
 4   0  0.1092222E-03  0.2236068E+02  0.7957747E-01  0.1516063E+00
      -11   -1    0    0    0    0  0.00000000000E+00  0.00000000000E+00  0.50000000000E+03  0.50000000000E+03  0.00000000000E+00 0.  1.
       11   -1    0    0    0    0 -0.00000000000E+00 -0.00000000000E+00 -0.50000000000E+03  0.50000000000E+03  0.00000000000E+00 0. -1.
  1000024    1    1    2    0    0  0.41759278155E+03  0.20085208008E+03  0.52256128694E+02  0.50000000000E+03  0.18039957800E+03 0. -1.
 -1000024    1    1    2    0    0 -0.41759278155E+03 -0.20085208008E+03 -0.52256128694E+02  0.50000000000E+03  0.18039957800E+03 0.  1.
</event>
<event>
 4   0  0.1092222E-03  0.2236068E+02  0.7957747E-01  0.1516063E+00
      -11   -1    0    0    0    0  0.00000000000E+00  0.00000000000E+00  0.50000000000E+03  0.50000000000E+03  0.00000000000E+00 0.  1.
       11   -1    0    0    0    0 -0.00000000000E+00 -0.00000000000E+00 -0.50000000000E+03  0.50000000000E+03  0.00000000000E+00 0. -1.
  1000024    1    1    2    0    0 -0.95212360789E+02 -0.33087250341E+03  0.31450593809E+03  0.50000000000E+03  0.18039957800E+03 0.  1.
 -1000024    1    1    2    0    0  0.95212360789E+02  0.33087250341E+03 -0.31450593809E+03  0.50000000000E+03  0.18039957800E+03 0. -1.
</event>
<event>
 4   0  0.1092222E-03  0.2236068E+02  0.7957747E-01  0.1516063E+00
      -11   -1    0    0    0    0  0.00000000000E+00  0.00000000000E+00  0.50000000000E+03  0.50000000000E+03  0.00000000000E+00 0.  1.
       11   -1    0    0    0    0 -0.00000000000E+00 -0.00000000000E+00 -0.50000000000E+03  0.50000000000E+03  0.00000000000E+00 0. -1.
  1000024    1    1    2    0    0  0.20346758644E+03 -0.12094720288E+03  0.40178191552E+03  0.50000000000E+03  0.18039957800E+03 0.  1.
 -1000024    1    1    2    0    0 -0.20346758644E+03  0.12094720288E+03 -0.40178191552E+03  0.50000000000E+03  0.18039957800E+03 0. -1.
</event>
<event>
 4   0  0.1092222E-03  0.2236068E+02  0.7957747E-01  0.1516063E+00
      -11   -1    0    0    0    0  0.00000000000E+00  0.00000000000E+00  0.50000000000E+03  0.50000000000E+03  0.00000000000E+00 0.  1.
       11   -1    0    0    0    0 -0.00000000000E+00 -0.00000000000E+00 -0.50000000000E+03  0.50000000000E+03  0.00000000000E+00 0. -1.
  1000024    1    1    2    0    0  0.25905774979E+03  0.38453258567E+03  0.49797239811E+02  0.50000000000E+03  0.18039957800E+03 0.  1.
 -1000024    1    1    2    0    0 -0.25905774979E+03 -0.38453258567E+03 -0.49797239811E+02  0.50000000000E+03  0.18039957800E+03 0. -1.
</event>
<event>
 4   0  0.7366543E-04  0.2236068E+02  0.7957747E-01  0.1516063E+00
      -11   -1    0    0    0    0  0.00000000000E+00  0.00000000000E+00  0.50000000000E+03  0.50000000000E+03  0.00000000000E+00 0.  1.
       11   -1    0    0    0    0 -0.00000000000E+00 -0.00000000000E+00 -0.50000000000E+03  0.50000000000E+03  0.00000000000E+00 0. -1.
  1000024    1    1    2    0    0  0.27277889874E+03 -0.37813551827E+03 -0.78226902854E+01  0.50000000000E+03  0.18039957800E+03 0. -1.
 -1000024    1    1    2    0    0 -0.27277889874E+03  0.37813551827E+03  0.78226902854E+01  0.50000000000E+03  0.18039957800E+03 0.  1.
</event>
<event>
 4   0  0.6712789E-04  0.2236068E+02  0.7957747E-01  0.1516063E+00
      -11   -1    0    0    0    0  0.00000000000E+00  0.00000000000E+00  0.50000000000E+03  0.50000000000E+03  0.00000000000E+00 0.  1.
       11   -1    0    0    0    0 -0.00000000000E+00 -0.00000000000E+00 -0.50000000000E+03  0.50000000000E+03  0.00000000000E+00 0. -1.
  1000024    1    1    2    0    0  0.45879436149E+03  0.82868615184E+02  0.98243949468E+01  0.50000000000E+03  0.18039957800E+03 0.  1.
 -1000024    1    1    2    0    0 -0.45879436149E+03 -0.82868615184E+02 -0.98243949468E+01  0.50000000000E+03  0.18039957800E+03 0. -1.
</event>
<event>
 4   0  0.1092222E-03  0.2236068E+02  0.7957747E-01  0.1516063E+00
      -11   -1    0    0    0    0  0.00000000000E+00  0.00000000000E+00  0.50000000000E+03  0.50000000000E+03  0.00000000000E+00 0.  1.
       11   -1    0    0    0    0 -0.00000000000E+00 -0.00000000000E+00 -0.50000000000E+03  0.50000000000E+03  0.00000000000E+00 0. -1.
  1000024    1    1    2    0    0  0.42281207551E+03  0.16931546173E+03  0.10009103597E+03  0.50000000000E+03  0.18039957800E+03 0.  1.
 -1000024    1    1    2    0    0 -0.42281207551E+03 -0.16931546173E+03 -0.10009103597E+03  0.50000000000E+03  0.18039957800E+03 0. -1.
</event>
<event>
 4   0  0.6712789E-04  0.2236068E+02  0.7957747E-01  0.1516063E+00
      -11   -1    0    0    0    0  0.00000000000E+00  0.00000000000E+00  0.50000000000E+03  0.50000000000E+03  0.00000000000E+00 0.  1.
       11   -1    0    0    0    0 -0.00000000000E+00 -0.00000000000E+00 -0.50000000000E+03  0.50000000000E+03  0.00000000000E+00 0. -1.
  1000024    1    1    2    0    0  0.20090317365E+03  0.62212611934E+02  0.41620127101E+03  0.50000000000E+03  0.18039957800E+03 0. -1.
 -1000024    1    1    2    0    0 -0.20090317365E+03 -0.62212611934E+02 -0.41620127101E+03  0.50000000000E+03  0.18039957800E+03 0.  1.
</event>
<event>
 4   0  0.1092222E-03  0.2236068E+02  0.7957747E-01  0.1516063E+00
      -11   -1    0    0    0    0  0.00000000000E+00  0.00000000000E+00  0.50000000000E+03  0.50000000000E+03  0.00000000000E+00 0.  1.
       11   -1    0    0    0    0 -0.00000000000E+00 -0.00000000000E+00 -0.50000000000E+03  0.50000000000E+03  0.00000000000E+00 0. -1.
  1000024    1    1    2    0    0  0.21051157567E+03 -0.11504506828E+03  0.39988185884E+03  0.50000000000E+03  0.18039957800E+03 0. -1.
 -1000024    1    1    2    0    0 -0.21051157567E+03  0.11504506828E+03 -0.39988185884E+03  0.50000000000E+03  0.18039957800E+03 0.  1.
</event>
<event>
 4   0  0.1092222E-03  0.2236068E+02  0.7957747E-01  0.1516063E+00
      -11   -1    0    0    0    0  0.00000000000E+00  0.00000000000E+00  0.50000000000E+03  0.50000000000E+03  0.00000000000E+00 0.  1.
       11   -1    0    0    0    0 -0.00000000000E+00 -0.00000000000E+00 -0.50000000000E+03  0.50000000000E+03  0.00000000000E+00 0. -1.
  1000024    1    1    2    0    0  0.17551574020E+03 -0.93176635621E+02  0.42186293008E+03  0.50000000000E+03  0.18039957800E+03 0.  1.
 -1000024    1    1    2    0    0 -0.17551574020E+03  0.93176635621E+02 -0.42186293008E+03  0.50000000000E+03  0.18039957800E+03 0. -1.
</event>
<event>
 4   0  0.1092222E-03  0.2236068E+02  0.7957747E-01  0.1516063E+00
      -11   -1    0    0    0    0  0.00000000000E+00  0.00000000000E+00  0.50000000000E+03  0.50000000000E+03  0.00000000000E+00 0.  1.
       11   -1    0    0    0    0 -0.00000000000E+00 -0.00000000000E+00 -0.50000000000E+03  0.50000000000E+03  0.00000000000E+00 0. -1.
  1000024    1    1    2    0    0 -0.31161064804E+03  0.53346490273E+02  0.34279578215E+03  0.50000000000E+03  0.18039957800E+03 0.  1.
 -1000024    1    1    2    0    0  0.31161064804E+03 -0.53346490273E+02 -0.34279578215E+03  0.50000000000E+03  0.18039957800E+03 0. -1.
</event>
<event>
 4   0  0.1092222E-03  0.2236068E+02  0.7957747E-01  0.1516063E+00
      -11   -1    0    0    0    0  0.00000000000E+00  0.00000000000E+00  0.50000000000E+03  0.50000000000E+03  0.00000000000E+00 0.  1.
       11   -1    0    0    0    0 -0.00000000000E+00 -0.00000000000E+00 -0.50000000000E+03  0.50000000000E+03  0.00000000000E+00 0. -1.
  1000024    1    1    2    0    0  0.42324205057E+03 -0.18216938423E+03  0.71669200755E+02  0.50000000000E+03  0.18039957800E+03 0. -1.
 -1000024    1    1    2    0    0 -0.42324205057E+03  0.18216938423E+03 -0.71669200755E+02  0.50000000000E+03  0.18039957800E+03 0.  1.
</event>
<event>
 4   0  0.7366543E-04  0.2236068E+02  0.7957747E-01  0.1516063E+00
      -11   -1    0    0    0    0  0.00000000000E+00  0.00000000000E+00  0.50000000000E+03  0.50000000000E+03  0.00000000000E+00 0.  1.
       11   -1    0    0    0    0 -0.00000000000E+00 -0.00000000000E+00 -0.50000000000E+03  0.50000000000E+03  0.00000000000E+00 0. -1.
  1000024    1    1    2    0    0 -0.32706923378E+03 -0.96639162586E+02  0.31802921379E+03  0.50000000000E+03  0.18039957800E+03 0. -1.
 -1000024    1    1    2    0    0  0.32706923378E+03  0.96639162586E+02 -0.31802921379E+03  0.50000000000E+03  0.18039957800E+03 0.  1.
</event>
<event>
 4   0  0.7366543E-04  0.2236068E+02  0.7957747E-01  0.1516063E+00
      -11   -1    0    0    0    0  0.00000000000E+00  0.00000000000E+00  0.50000000000E+03  0.50000000000E+03  0.00000000000E+00 0.  1.
       11   -1    0    0    0    0 -0.00000000000E+00 -0.00000000000E+00 -0.50000000000E+03  0.50000000000E+03  0.00000000000E+00 0. -1.
  1000024    1    1    2    0    0  0.34865823601E+03 -0.26884979191E+03  0.15366592372E+03  0.50000000000E+03  0.18039957800E+03 0. -1.
 -1000024    1    1    2    0    0 -0.34865823601E+03  0.26884979191E+03 -0.15366592372E+03  0.50000000000E+03  0.18039957800E+03 0.  1.
</event>
<event>
 4   0  0.6712789E-04  0.2236068E+02  0.7957747E-01  0.1516063E+00
      -11   -1    0    0    0    0  0.00000000000E+00  0.00000000000E+00  0.50000000000E+03  0.50000000000E+03  0.00000000000E+00 0.  1.
       11   -1    0    0    0    0 -0.00000000000E+00 -0.00000000000E+00 -0.50000000000E+03  0.50000000000E+03  0.00000000000E+00 0. -1.
  1000024    1    1    2    0    0 -0.40892363068E+03  0.22382839045E+03 -0.11760448753E+02  0.50000000000E+03  0.18039957800E+03 0. -1.
 -1000024    1    1    2    0    0  0.40892363068E+03 -0.22382839045E+03  0.11760448753E+02  0.50000000000E+03  0.18039957800E+03 0.  1.
</event>
<event>
 4   0  0.1092222E-03  0.2236068E+02  0.7957747E-01  0.1516063E+00
      -11   -1    0    0    0    0  0.00000000000E+00  0.00000000000E+00  0.50000000000E+03  0.50000000000E+03  0.00000000000E+00 0.  1.
       11   -1    0    0    0    0 -0.00000000000E+00 -0.00000000000E+00 -0.50000000000E+03  0.50000000000E+03  0.00000000000E+00 0. -1.
  1000024    1    1    2    0    0  0.17345102766E+03 -0.42245230298E+03 -0.94365168204E+02  0.50000000000E+03  0.18039957800E+03 0.  1.
 -1000024    1    1    2    0    0 -0.17345102766E+03  0.42245230298E+03  0.94365168204E+02  0.50000000000E+03  0.18039957800E+03 0. -1.
</event>
<event>
 4   0  0.1092222E-03  0.2236068E+02  0.7957747E-01  0.1516063E+00
      -11   -1    0    0    0    0  0.00000000000E+00  0.00000000000E+00  0.50000000000E+03  0.50000000000E+03  0.00000000000E+00 0.  1.
       11   -1    0    0    0    0 -0.00000000000E+00 -0.00000000000E+00 -0.50000000000E+03  0.50000000000E+03  0.00000000000E+00 0. -1.
  1000024    1    1    2    0    0  0.30454094812E+03  0.57737463330E+02  0.34839229110E+03  0.50000000000E+03  0.18039957800E+03 0.  1.
 -1000024    1    1    2    0    0 -0.30454094812E+03 -0.57737463330E+02 -0.34839229110E+03  0.50000000000E+03  0.18039957800E+03 0. -1.
</event>
<event>
 4   0  0.6712789E-04  0.2236068E+02  0.7957747E-01  0.1516063E+00
      -11   -1    0    0    0    0  0.00000000000E+00  0.00000000000E+00  0.50000000000E+03  0.50000000000E+03  0.00000000000E+00 0.  1.
       11   -1    0    0    0    0 -0.00000000000E+00 -0.00000000000E+00 -0.50000000000E+03  0.50000000000E+03  0.00000000000E+00 0. -1.
  1000024    1    1    2    0    0  0.31908698402E+03 -0.11448906967E+03  0.32020578042E+03  0.50000000000E+03  0.18039957800E+03 0. -1.
 -1000024    1    1    2    0    0 -0.31908698402E+03  0.11448906967E+03 -0.32020578042E+03  0.50000000000E+03  0.18039957800E+03 0.  1.
</event>
<event>
 4   0  0.1092222E-03  0.2236068E+02  0.7957747E-01  0.1516063E+00
      -11   -1    0    0    0    0  0.00000000000E+00  0.00000000000E+00  0.50000000000E+03  0.50000000000E+03  0.00000000000E+00 0.  1.
       11   -1    0    0    0    0 -0.00000000000E+00 -0.00000000000E+00 -0.50000000000E+03  0.50000000000E+03  0.00000000000E+00 0. -1.
  1000024    1    1    2    0    0 -0.45211942864E+03  0.92931812326E+02  0.66390456830E+02  0.50000000000E+03  0.18039957800E+03 0.  1.
 -1000024    1    1    2    0    0  0.45211942864E+03 -0.92931812326E+02 -0.66390456830E+02  0.50000000000E+03  0.18039957800E+03 0. -1.
</event>
<event>
 4   0  0.1092222E-03  0.2236068E+02  0.7957747E-01  0.1516063E+00
      -11   -1    0    0    0    0  0.00000000000E+00  0.00000000000E+00  0.50000000000E+03  0.50000000000E+03  0.00000000000E+00 0.  1.
       11   -1    0    0    0    0 -0.00000000000E+00 -0.00000000000E+00 -0.50000000000E+03  0.50000000000E+03  0.00000000000E+00 0. -1.
  1000024    1    1    2    0    0 -0.41704706514E+03 -0.75449023258E+02  0.19451267980E+03  0.50000000000E+03  0.18039957800E+03 0. -1.
 -1000024    1    1    2    0    0  0.41704706514E+03  0.75449023258E+02 -0.19451267980E+03  0.50000000000E+03  0.18039957800E+03 0.  1.
</event>
<event>
 4   0  0.7366543E-04  0.2236068E+02  0.7957747E-01  0.1516063E+00
      -11   -1    0    0    0    0  0.00000000000E+00  0.00000000000E+00  0.50000000000E+03  0.50000000000E+03  0.00000000000E+00 0.  1.
       11   -1    0    0    0    0 -0.00000000000E+00 -0.00000000000E+00 -0.50000000000E+03  0.50000000000E+03  0.00000000000E+00 0. -1.
  1000024    1    1    2    0    0  0.11539548216E+02  0.30651435966E+03  0.35124318983E+03  0.50000000000E+03  0.18039957800E+03 0. -1.
 -1000024    1    1    2    0    0 -0.11539548216E+02 -0.30651435966E+03 -0.35124318983E+03  0.50000000000E+03  0.18039957800E+03 0. -1.
</event>
<event>
 4   0  0.1092222E-03  0.2236068E+02  0.7957747E-01  0.1516063E+00
      -11   -1    0    0    0    0  0.00000000000E+00  0.00000000000E+00  0.50000000000E+03  0.50000000000E+03  0.00000000000E+00 0.  1.
       11   -1    0    0    0    0 -0.00000000000E+00 -0.00000000000E+00 -0.50000000000E+03  0.50000000000E+03  0.00000000000E+00 0. -1.
  1000024    1    1    2    0    0  0.18140106257E+03 -0.13162854488E+03  0.40892978973E+03  0.50000000000E+03  0.18039957800E+03 0. -1.
 -1000024    1    1    2    0    0 -0.18140106257E+03  0.13162854488E+03 -0.40892978973E+03  0.50000000000E+03  0.18039957800E+03 0. -1.
</event>
<event>
 4   0  0.6712789E-04  0.2236068E+02  0.7957747E-01  0.1516063E+00
      -11   -1    0    0    0    0  0.00000000000E+00  0.00000000000E+00  0.50000000000E+03  0.50000000000E+03  0.00000000000E+00 0.  1.
       11   -1    0    0    0    0 -0.00000000000E+00 -0.00000000000E+00 -0.50000000000E+03  0.50000000000E+03  0.00000000000E+00 0. -1.
  1000024    1    1    2    0    0  0.18829460799E+03  0.15443610482E+03  0.39768155902E+03  0.50000000000E+03  0.18039957800E+03 0.  1.
 -1000024    1    1    2    0    0 -0.18829460799E+03 -0.15443610482E+03 -0.39768155902E+03  0.50000000000E+03  0.18039957800E+03 0. -1.
</event>
<event>
 4   0  0.6712789E-04  0.2236068E+02  0.7957747E-01  0.1516063E+00
      -11   -1    0    0    0    0  0.00000000000E+00  0.00000000000E+00  0.50000000000E+03  0.50000000000E+03  0.00000000000E+00 0.  1.
       11   -1    0    0    0    0 -0.00000000000E+00 -0.00000000000E+00 -0.50000000000E+03  0.50000000000E+03  0.00000000000E+00 0. -1.
  1000024    1    1    2    0    0  0.32423916033E+03 -0.32924964950E+03 -0.62606928307E+02  0.50000000000E+03  0.18039957800E+03 0.  1.
 -1000024    1    1    2    0    0 -0.32423916033E+03  0.32924964950E+03  0.62606928307E+02  0.50000000000E+03  0.18039957800E+03 0. -1.
</event>
<event>
 4   0  0.6712789E-04  0.2236068E+02  0.7957747E-01  0.1516063E+00
      -11   -1    0    0    0    0  0.00000000000E+00  0.00000000000E+00  0.50000000000E+03  0.50000000000E+03  0.00000000000E+00 0.  1.
       11   -1    0    0    0    0 -0.00000000000E+00 -0.00000000000E+00 -0.50000000000E+03  0.50000000000E+03  0.00000000000E+00 0. -1.
  1000024    1    1    2    0    0 -0.20127036039E+03 -0.19112299788E+02  0.42021536655E+03  0.50000000000E+03  0.18039957800E+03 0.  1.
 -1000024    1    1    2    0    0  0.20127036039E+03  0.19112299788E+02 -0.42021536655E+03  0.50000000000E+03  0.18039957800E+03 0.  1.
</event>
<event>
 4   0  0.7366543E-04  0.2236068E+02  0.7957747E-01  0.1516063E+00
      -11   -1    0    0    0    0  0.00000000000E+00  0.00000000000E+00  0.50000000000E+03  0.50000000000E+03  0.00000000000E+00 0.  1.
       11   -1    0    0    0    0 -0.00000000000E+00 -0.00000000000E+00 -0.50000000000E+03  0.50000000000E+03  0.00000000000E+00 0. -1.
  1000024    1    1    2    0    0  0.28127513696E+03  0.35774318496E+03 -0.10178459217E+03  0.50000000000E+03  0.18039957800E+03 0. -1.
 -1000024    1    1    2    0    0 -0.28127513696E+03 -0.35774318496E+03  0.10178459217E+03  0.50000000000E+03  0.18039957800E+03 0.  1.
</event>
<event>
 4   0  0.6712789E-04  0.2236068E+02  0.7957747E-01  0.1516063E+00
      -11   -1    0    0    0    0  0.00000000000E+00  0.00000000000E+00  0.50000000000E+03  0.50000000000E+03  0.00000000000E+00 0.  1.
       11   -1    0    0    0    0 -0.00000000000E+00 -0.00000000000E+00 -0.50000000000E+03  0.50000000000E+03  0.00000000000E+00 0. -1.
  1000024    1    1    2    0    0  0.13964670720E+03  0.93001557836E+02  0.43509251851E+03  0.50000000000E+03  0.18039957800E+03 0. -1.
 -1000024    1    1    2    0    0 -0.13964670720E+03 -0.93001557836E+02 -0.43509251851E+03  0.50000000000E+03  0.18039957800E+03 0.  1.
</event>
<event>
 4   0  0.1092222E-03  0.2236068E+02  0.7957747E-01  0.1516063E+00
      -11   -1    0    0    0    0  0.00000000000E+00  0.00000000000E+00  0.50000000000E+03  0.50000000000E+03  0.00000000000E+00 0.  1.
       11   -1    0    0    0    0 -0.00000000000E+00 -0.00000000000E+00 -0.50000000000E+03  0.50000000000E+03  0.00000000000E+00 0. -1.
  1000024    1    1    2    0    0 -0.43059834373E+03 -0.34290184266E+02  0.17568506453E+03  0.50000000000E+03  0.18039957800E+03 0.  1.
 -1000024    1    1    2    0    0  0.43059834373E+03  0.34290184266E+02 -0.17568506453E+03  0.50000000000E+03  0.18039957800E+03 0. -1.
</event>
<event>
 4   0  0.1092222E-03  0.2236068E+02  0.7957747E-01  0.1516063E+00
      -11   -1    0    0    0    0  0.00000000000E+00  0.00000000000E+00  0.50000000000E+03  0.50000000000E+03  0.00000000000E+00 0.  1.
       11   -1    0    0    0    0 -0.00000000000E+00 -0.00000000000E+00 -0.50000000000E+03  0.50000000000E+03  0.00000000000E+00 0. -1.
  1000024    1    1    2    0    0  0.34176268029E+03  0.86179091286E+02  0.30533166695E+03  0.50000000000E+03  0.18039957800E+03 0. -1.
 -1000024    1    1    2    0    0 -0.34176268029E+03 -0.86179091286E+02 -0.30533166695E+03  0.50000000000E+03  0.18039957800E+03 0.  1.
</event>
<event>
 4   0  0.7366543E-04  0.2236068E+02  0.7957747E-01  0.1516063E+00
      -11   -1    0    0    0    0  0.00000000000E+00  0.00000000000E+00  0.50000000000E+03  0.50000000000E+03  0.00000000000E+00 0.  1.
       11   -1    0    0    0    0 -0.00000000000E+00 -0.00000000000E+00 -0.50000000000E+03  0.50000000000E+03  0.00000000000E+00 0. -1.
  1000024    1    1    2    0    0  0.25886199171E+03  0.21029558749E+03  0.32591751624E+03  0.50000000000E+03  0.18039957800E+03 0.  1.
 -1000024    1    1    2    0    0 -0.25886199171E+03 -0.21029558749E+03 -0.32591751624E+03  0.50000000000E+03  0.18039957800E+03 0. -1.
</event>
<event>
 4   0  0.7366543E-04  0.2236068E+02  0.7957747E-01  0.1516063E+00
      -11   -1    0    0    0    0  0.00000000000E+00  0.00000000000E+00  0.50000000000E+03  0.50000000000E+03  0.00000000000E+00 0.  1.
       11   -1    0    0    0    0 -0.00000000000E+00 -0.00000000000E+00 -0.50000000000E+03  0.50000000000E+03  0.00000000000E+00 0. -1.
  1000024    1    1    2    0    0 -0.78507872366E+02  0.38657964220E+03  0.24869396147E+03  0.50000000000E+03  0.18039957800E+03 0. -1.
 -1000024    1    1    2    0    0  0.78507872366E+02 -0.38657964220E+03 -0.24869396147E+03  0.50000000000E+03  0.18039957800E+03 0.  1.
</event>
<event>
 4   0  0.6712789E-04  0.2236068E+02  0.7957747E-01  0.1516063E+00
      -11   -1    0    0    0    0  0.00000000000E+00  0.00000000000E+00  0.50000000000E+03  0.50000000000E+03  0.00000000000E+00 0.  1.
       11   -1    0    0    0    0 -0.00000000000E+00 -0.00000000000E+00 -0.50000000000E+03  0.50000000000E+03  0.00000000000E+00 0. -1.
  1000024    1    1    2    0    0 -0.38039944415E+03 -0.33522404954E+02  0.26763501923E+03  0.50000000000E+03  0.18039957800E+03 0. -1.
 -1000024    1    1    2    0    0  0.38039944415E+03  0.33522404954E+02 -0.26763501923E+03  0.50000000000E+03  0.18039957800E+03 0.  1.
</event>
<event>
 4   0  0.7366543E-04  0.2236068E+02  0.7957747E-01  0.1516063E+00
      -11   -1    0    0    0    0  0.00000000000E+00  0.00000000000E+00  0.50000000000E+03  0.50000000000E+03  0.00000000000E+00 0.  1.
       11   -1    0    0    0    0 -0.00000000000E+00 -0.00000000000E+00 -0.50000000000E+03  0.50000000000E+03  0.00000000000E+00 0. -1.
  1000024    1    1    2    0    0 -0.31957732817E+03  0.31967410052E+03  0.11460712472E+03  0.50000000000E+03  0.18039957800E+03 0.  1.
 -1000024    1    1    2    0    0  0.31957732817E+03 -0.31967410052E+03 -0.11460712472E+03  0.50000000000E+03  0.18039957800E+03 0. -1.
</event>
<event>
 4   0  0.7366543E-04  0.2236068E+02  0.7957747E-01  0.1516063E+00
      -11   -1    0    0    0    0  0.00000000000E+00  0.00000000000E+00  0.50000000000E+03  0.50000000000E+03  0.00000000000E+00 0.  1.
       11   -1    0    0    0    0 -0.00000000000E+00 -0.00000000000E+00 -0.50000000000E+03  0.50000000000E+03  0.00000000000E+00 0. -1.
  1000024    1    1    2    0    0 -0.35722580055E+03 -0.10071089808E+03  0.28231725893E+03  0.50000000000E+03  0.18039957800E+03 0. -1.
 -1000024    1    1    2    0    0  0.35722580055E+03  0.10071089808E+03 -0.28231725893E+03  0.50000000000E+03  0.18039957800E+03 0.  1.
</event>
<event>
 4   0  0.1092222E-03  0.2236068E+02  0.7957747E-01  0.1516063E+00
      -11   -1    0    0    0    0  0.00000000000E+00  0.00000000000E+00  0.50000000000E+03  0.50000000000E+03  0.00000000000E+00 0.  1.
       11   -1    0    0    0    0 -0.00000000000E+00 -0.00000000000E+00 -0.50000000000E+03  0.50000000000E+03  0.00000000000E+00 0. -1.
  1000024    1    1    2    0    0  0.38583002211E+02  0.26033486342E+03  0.38495857321E+03  0.50000000000E+03  0.18039957800E+03 0. -1.
 -1000024    1    1    2    0    0 -0.38583002211E+02 -0.26033486342E+03 -0.38495857321E+03  0.50000000000E+03  0.18039957800E+03 0.  1.
</event>
<event>
 4   0  0.1092222E-03  0.2236068E+02  0.7957747E-01  0.1516063E+00
      -11   -1    0    0    0    0  0.00000000000E+00  0.00000000000E+00  0.50000000000E+03  0.50000000000E+03  0.00000000000E+00 0.  1.
       11   -1    0    0    0    0 -0.00000000000E+00 -0.00000000000E+00 -0.50000000000E+03  0.50000000000E+03  0.00000000000E+00 0. -1.
  1000024    1    1    2    0    0  0.15224638180E+03 -0.30007988101E+01  0.44075846752E+03  0.50000000000E+03  0.18039957800E+03 0. -1.
 -1000024    1    1    2    0    0 -0.15224638180E+03  0.30007988101E+01 -0.44075846752E+03  0.50000000000E+03  0.18039957800E+03 0. -1.
</event>
<event>
 4   0  0.7366543E-04  0.2236068E+02  0.7957747E-01  0.1516063E+00
      -11   -1    0    0    0    0  0.00000000000E+00  0.00000000000E+00  0.50000000000E+03  0.50000000000E+03  0.00000000000E+00 0.  1.
       11   -1    0    0    0    0 -0.00000000000E+00 -0.00000000000E+00 -0.50000000000E+03  0.50000000000E+03  0.00000000000E+00 0. -1.
  1000024    1    1    2    0    0  0.44894360692E+03 -0.89745470589E+02  0.88608016392E+02  0.50000000000E+03  0.18039957800E+03 0.  1.
 -1000024    1    1    2    0    0 -0.44894360692E+03  0.89745470589E+02 -0.88608016392E+02  0.50000000000E+03  0.18039957800E+03 0. -1.
</event>
<event>
 4   0  0.1092222E-03  0.2236068E+02  0.7957747E-01  0.1516063E+00
      -11   -1    0    0    0    0  0.00000000000E+00  0.00000000000E+00  0.50000000000E+03  0.50000000000E+03  0.00000000000E+00 0.  1.
       11   -1    0    0    0    0 -0.00000000000E+00 -0.00000000000E+00 -0.50000000000E+03  0.50000000000E+03  0.00000000000E+00 0. -1.
  1000024    1    1    2    0    0 -0.44751130830E+03 -0.12966671966E+03  0.19394922247E+02  0.50000000000E+03  0.18039957800E+03 0. -1.
 -1000024    1    1    2    0    0  0.44751130830E+03  0.12966671966E+03 -0.19394922247E+02  0.50000000000E+03  0.18039957800E+03 0.  1.
</event>
<event>
 4   0  0.6712789E-04  0.2236068E+02  0.7957747E-01  0.1516063E+00
      -11   -1    0    0    0    0  0.00000000000E+00  0.00000000000E+00  0.50000000000E+03  0.50000000000E+03  0.00000000000E+00 0.  1.
       11   -1    0    0    0    0 -0.00000000000E+00 -0.00000000000E+00 -0.50000000000E+03  0.50000000000E+03  0.00000000000E+00 0. -1.
  1000024    1    1    2    0    0  0.27049779499E+03  0.51814077950E+01  0.37981586088E+03  0.50000000000E+03  0.18039957800E+03 0. -1.
 -1000024    1    1    2    0    0 -0.27049779499E+03 -0.51814077950E+01 -0.37981586088E+03  0.50000000000E+03  0.18039957800E+03 0.  1.
</event>
<event>
 4   0  0.1092222E-03  0.2236068E+02  0.7957747E-01  0.1516063E+00
      -11   -1    0    0    0    0  0.00000000000E+00  0.00000000000E+00  0.50000000000E+03  0.50000000000E+03  0.00000000000E+00 0.  1.
       11   -1    0    0    0    0 -0.00000000000E+00 -0.00000000000E+00 -0.50000000000E+03  0.50000000000E+03  0.00000000000E+00 0. -1.
  1000024    1    1    2    0    0 -0.13094831391E+02  0.28171962803E+03  0.37137389358E+03  0.50000000000E+03  0.18039957800E+03 0. -1.
 -1000024    1    1    2    0    0  0.13094831391E+02 -0.28171962803E+03 -0.37137389358E+03  0.50000000000E+03  0.18039957800E+03 0.  1.
</event>
<event>
 4   0  0.7366543E-04  0.2236068E+02  0.7957747E-01  0.1516063E+00
      -11   -1    0    0    0    0  0.00000000000E+00  0.00000000000E+00  0.50000000000E+03  0.50000000000E+03  0.00000000000E+00 0.  1.
       11   -1    0    0    0    0 -0.00000000000E+00 -0.00000000000E+00 -0.50000000000E+03  0.50000000000E+03  0.00000000000E+00 0. -1.
  1000024    1    1    2    0    0  0.43381275930E+03 -0.12318568004E+03  0.11869191362E+03  0.50000000000E+03  0.18039957800E+03 0. -1.
 -1000024    1    1    2    0    0 -0.43381275930E+03  0.12318568004E+03 -0.11869191362E+03  0.50000000000E+03  0.18039957800E+03 0.  1.
</event>
<event>
 4   0  0.1092222E-03  0.2236068E+02  0.7957747E-01  0.1516063E+00
      -11   -1    0    0    0    0  0.00000000000E+00  0.00000000000E+00  0.50000000000E+03  0.50000000000E+03  0.00000000000E+00 0.  1.
       11   -1    0    0    0    0 -0.00000000000E+00 -0.00000000000E+00 -0.50000000000E+03  0.50000000000E+03  0.00000000000E+00 0. -1.
  1000024    1    1    2    0    0  0.38353102884E+03 -0.35616111464E-01  0.26525448329E+03  0.50000000000E+03  0.18039957800E+03 0.  1.
 -1000024    1    1    2    0    0 -0.38353102884E+03  0.35616111464E-01 -0.26525448329E+03  0.50000000000E+03  0.18039957800E+03 0. -1.
</event>
<event>
 4   0  0.1092222E-03  0.2236068E+02  0.7957747E-01  0.1516063E+00
      -11   -1    0    0    0    0  0.00000000000E+00  0.00000000000E+00  0.50000000000E+03  0.50000000000E+03  0.00000000000E+00 0.  1.
       11   -1    0    0    0    0 -0.00000000000E+00 -0.00000000000E+00 -0.50000000000E+03  0.50000000000E+03  0.00000000000E+00 0. -1.
  1000024    1    1    2    0    0  0.38765034122E+03  0.25885784956E+03  0.13259673161E+02  0.50000000000E+03  0.18039957800E+03 0.  1.
 -1000024    1    1    2    0    0 -0.38765034122E+03 -0.25885784956E+03 -0.13259673161E+02  0.50000000000E+03  0.18039957800E+03 0. -1.
</event>
<event>
 4   0  0.6712789E-04  0.2236068E+02  0.7957747E-01  0.1516063E+00
      -11   -1    0    0    0    0  0.00000000000E+00  0.00000000000E+00  0.50000000000E+03  0.50000000000E+03  0.00000000000E+00 0.  1.
       11   -1    0    0    0    0 -0.00000000000E+00 -0.00000000000E+00 -0.50000000000E+03  0.50000000000E+03  0.00000000000E+00 0. -1.
  1000024    1    1    2    0    0 -0.23225525134E+03  0.39589811139E+03  0.82329677988E+02  0.50000000000E+03  0.18039957800E+03 0.  1.
 -1000024    1    1    2    0    0  0.23225525134E+03 -0.39589811139E+03 -0.82329677988E+02  0.50000000000E+03  0.18039957800E+03 0. -1.
</event>
<event>
 4   0  0.6712789E-04  0.2236068E+02  0.7957747E-01  0.1516063E+00
      -11   -1    0    0    0    0  0.00000000000E+00  0.00000000000E+00  0.50000000000E+03  0.50000000000E+03  0.00000000000E+00 0.  1.
       11   -1    0    0    0    0 -0.00000000000E+00 -0.00000000000E+00 -0.50000000000E+03  0.50000000000E+03  0.00000000000E+00 0. -1.
  1000024    1    1    2    0    0 -0.23481152482E+03 -0.24463290148E+03  0.32011604706E+03  0.50000000000E+03  0.18039957800E+03 0. -1.
 -1000024    1    1    2    0    0  0.23481152482E+03  0.24463290148E+03 -0.32011604706E+03  0.50000000000E+03  0.18039957800E+03 0.  1.
</event>
<event>
 4   0  0.7366543E-04  0.2236068E+02  0.7957747E-01  0.1516063E+00
      -11   -1    0    0    0    0  0.00000000000E+00  0.00000000000E+00  0.50000000000E+03  0.50000000000E+03  0.00000000000E+00 0.  1.
       11   -1    0    0    0    0 -0.00000000000E+00 -0.00000000000E+00 -0.50000000000E+03  0.50000000000E+03  0.00000000000E+00 0. -1.
  1000024    1    1    2    0    0  0.63943887972E+02 -0.20824687536E+03  0.41231106018E+03  0.50000000000E+03  0.18039957800E+03 0.  1.
 -1000024    1    1    2    0    0 -0.63943887972E+02  0.20824687536E+03 -0.41231106018E+03  0.50000000000E+03  0.18039957800E+03 0. -1.
</event>
<event>
 4   0  0.6712789E-04  0.2236068E+02  0.7957747E-01  0.1516063E+00
      -11   -1    0    0    0    0  0.00000000000E+00  0.00000000000E+00  0.50000000000E+03  0.50000000000E+03  0.00000000000E+00 0.  1.
       11   -1    0    0    0    0 -0.00000000000E+00 -0.00000000000E+00 -0.50000000000E+03  0.50000000000E+03  0.00000000000E+00 0. -1.
  1000024    1    1    2    0    0  0.15765422370E+03 -0.59868025967E+02  0.43476080489E+03  0.50000000000E+03  0.18039957800E+03 0. -1.
 -1000024    1    1    2    0    0 -0.15765422370E+03  0.59868025967E+02 -0.43476080489E+03  0.50000000000E+03  0.18039957800E+03 0. -1.
</event>
<event>
 4   0  0.6712789E-04  0.2236068E+02  0.7957747E-01  0.1516063E+00
      -11   -1    0    0    0    0  0.00000000000E+00  0.00000000000E+00  0.50000000000E+03  0.50000000000E+03  0.00000000000E+00 0.  1.
       11   -1    0    0    0    0 -0.00000000000E+00 -0.00000000000E+00 -0.50000000000E+03  0.50000000000E+03  0.00000000000E+00 0. -1.
  1000024    1    1    2    0    0 -0.16720279542E+03  0.20918356224E+03  0.38176099165E+03  0.50000000000E+03  0.18039957800E+03 0. -1.
 -1000024    1    1    2    0    0  0.16720279542E+03 -0.20918356224E+03 -0.38176099165E+03  0.50000000000E+03  0.18039957800E+03 0.  1.
</event>
<event>
 4   0  0.6712789E-04  0.2236068E+02  0.7957747E-01  0.1516063E+00
      -11   -1    0    0    0    0  0.00000000000E+00  0.00000000000E+00  0.50000000000E+03  0.50000000000E+03  0.00000000000E+00 0.  1.
       11   -1    0    0    0    0 -0.00000000000E+00 -0.00000000000E+00 -0.50000000000E+03  0.50000000000E+03  0.00000000000E+00 0. -1.
  1000024    1    1    2    0    0 -0.28255480950E+03 -0.24371607613E+03  0.27968061449E+03  0.50000000000E+03  0.18039957800E+03 0. -1.
 -1000024    1    1    2    0    0  0.28255480950E+03  0.24371607613E+03 -0.27968061449E+03  0.50000000000E+03  0.18039957800E+03 0.  1.
</event>
<event>
 4   0  0.1092222E-03  0.2236068E+02  0.7957747E-01  0.1516063E+00
      -11   -1    0    0    0    0  0.00000000000E+00  0.00000000000E+00  0.50000000000E+03  0.50000000000E+03  0.00000000000E+00 0.  1.
       11   -1    0    0    0    0 -0.00000000000E+00 -0.00000000000E+00 -0.50000000000E+03  0.50000000000E+03  0.00000000000E+00 0. -1.
  1000024    1    1    2    0    0  0.32675064191E+03  0.16450633324E+03  0.28918450268E+03  0.50000000000E+03  0.18039957800E+03 0. -1.
 -1000024    1    1    2    0    0 -0.32675064191E+03 -0.16450633324E+03 -0.28918450268E+03  0.50000000000E+03  0.18039957800E+03 0.  1.
</event>
<event>
 4   0  0.1092222E-03  0.2236068E+02  0.7957747E-01  0.1516063E+00
      -11   -1    0    0    0    0  0.00000000000E+00  0.00000000000E+00  0.50000000000E+03  0.50000000000E+03  0.00000000000E+00 0.  1.
       11   -1    0    0    0    0 -0.00000000000E+00 -0.00000000000E+00 -0.50000000000E+03  0.50000000000E+03  0.00000000000E+00 0. -1.
  1000024    1    1    2    0    0 -0.17581134487E+03  0.37660917870E+03  0.21145186165E+03  0.50000000000E+03  0.18039957800E+03 0.  1.
 -1000024    1    1    2    0    0  0.17581134487E+03 -0.37660917870E+03 -0.21145186165E+03  0.50000000000E+03  0.18039957800E+03 0. -1.
</event>
<event>
 4   0  0.1092222E-03  0.2236068E+02  0.7957747E-01  0.1516063E+00
      -11   -1    0    0    0    0  0.00000000000E+00  0.00000000000E+00  0.50000000000E+03  0.50000000000E+03  0.00000000000E+00 0.  1.
       11   -1    0    0    0    0 -0.00000000000E+00 -0.00000000000E+00 -0.50000000000E+03  0.50000000000E+03  0.00000000000E+00 0. -1.
  1000024    1    1    2    0    0 -0.19233586967E+03 -0.32626988360E+03  0.27204938623E+03  0.50000000000E+03  0.18039957800E+03 0.  1.
 -1000024    1    1    2    0    0  0.19233586967E+03  0.32626988360E+03 -0.27204938623E+03  0.50000000000E+03  0.18039957800E+03 0. -1.
</event>
<event>
 4   0  0.6712789E-04  0.2236068E+02  0.7957747E-01  0.1516063E+00
      -11   -1    0    0    0    0  0.00000000000E+00  0.00000000000E+00  0.50000000000E+03  0.50000000000E+03  0.00000000000E+00 0.  1.
       11   -1    0    0    0    0 -0.00000000000E+00 -0.00000000000E+00 -0.50000000000E+03  0.50000000000E+03  0.00000000000E+00 0. -1.
  1000024    1    1    2    0    0 -0.23679312070E+03  0.24752713606E+03  0.31641006173E+03  0.50000000000E+03  0.18039957800E+03 0. -1.
 -1000024    1    1    2    0    0  0.23679312070E+03 -0.24752713606E+03 -0.31641006173E+03  0.50000000000E+03  0.18039957800E+03 0.  1.
</event>
<event>
 4   0  0.7366543E-04  0.2236068E+02  0.7957747E-01  0.1516063E+00
      -11   -1    0    0    0    0  0.00000000000E+00  0.00000000000E+00  0.50000000000E+03  0.50000000000E+03  0.00000000000E+00 0.  1.
       11   -1    0    0    0    0 -0.00000000000E+00 -0.00000000000E+00 -0.50000000000E+03  0.50000000000E+03  0.00000000000E+00 0. -1.
  1000024    1    1    2    0    0  0.68755630839E+02  0.40865266867E+03  0.21384960106E+03  0.50000000000E+03  0.18039957800E+03 0.  1.
 -1000024    1    1    2    0    0 -0.68755630839E+02 -0.40865266867E+03 -0.21384960106E+03  0.50000000000E+03  0.18039957800E+03 0. -1.
</event>
<event>
 4   0  0.1092222E-03  0.2236068E+02  0.7957747E-01  0.1516063E+00
      -11   -1    0    0    0    0  0.00000000000E+00  0.00000000000E+00  0.50000000000E+03  0.50000000000E+03  0.00000000000E+00 0.  1.
       11   -1    0    0    0    0 -0.00000000000E+00 -0.00000000000E+00 -0.50000000000E+03  0.50000000000E+03  0.00000000000E+00 0. -1.
  1000024    1    1    2    0    0  0.45952655977E+03 -0.63370591659E+02  0.47702214198E+02  0.50000000000E+03  0.18039957800E+03 0. -1.
 -1000024    1    1    2    0    0 -0.45952655977E+03  0.63370591659E+02 -0.47702214198E+02  0.50000000000E+03  0.18039957800E+03 0.  1.
</event>
<event>
 4   0  0.7366543E-04  0.2236068E+02  0.7957747E-01  0.1516063E+00
      -11   -1    0    0    0    0  0.00000000000E+00  0.00000000000E+00  0.50000000000E+03  0.50000000000E+03  0.00000000000E+00 0.  1.
       11   -1    0    0    0    0 -0.00000000000E+00 -0.00000000000E+00 -0.50000000000E+03  0.50000000000E+03  0.00000000000E+00 0. -1.
  1000024    1    1    2    0    0 -0.12656147740E+03 -0.43895498410E+03  0.93577276254E+02  0.50000000000E+03  0.18039957800E+03 0. -1.
 -1000024    1    1    2    0    0  0.12656147740E+03  0.43895498410E+03 -0.93577276254E+02  0.50000000000E+03  0.18039957800E+03 0.  1.
</event>
<event>
 4   0  0.6712789E-04  0.2236068E+02  0.7957747E-01  0.1516063E+00
      -11   -1    0    0    0    0  0.00000000000E+00  0.00000000000E+00  0.50000000000E+03  0.50000000000E+03  0.00000000000E+00 0.  1.
       11   -1    0    0    0    0 -0.00000000000E+00 -0.00000000000E+00 -0.50000000000E+03  0.50000000000E+03  0.00000000000E+00 0. -1.
  1000024    1    1    2    0    0 -0.33838952411E+03 -0.25066374227E+03  0.20029031565E+03  0.50000000000E+03  0.18039957800E+03 0. -1.
 -1000024    1    1    2    0    0  0.33838952411E+03  0.25066374227E+03 -0.20029031565E+03  0.50000000000E+03  0.18039957800E+03 0.  1.
</event>
<event>
 4   0  0.1092222E-03  0.2236068E+02  0.7957747E-01  0.1516063E+00
      -11   -1    0    0    0    0  0.00000000000E+00  0.00000000000E+00  0.50000000000E+03  0.50000000000E+03  0.00000000000E+00 0.  1.
       11   -1    0    0    0    0 -0.00000000000E+00 -0.00000000000E+00 -0.50000000000E+03  0.50000000000E+03  0.00000000000E+00 0. -1.
  1000024    1    1    2    0    0  0.15177911583E+03 -0.42076695206E+03 -0.13181147261E+03  0.50000000000E+03  0.18039957800E+03 0.  1.
 -1000024    1    1    2    0    0 -0.15177911583E+03  0.42076695206E+03  0.13181147261E+03  0.50000000000E+03  0.18039957800E+03 0. -1.
</event>
<event>
 4   0  0.6712789E-04  0.2236068E+02  0.7957747E-01  0.1516063E+00
      -11   -1    0    0    0    0  0.00000000000E+00  0.00000000000E+00  0.50000000000E+03  0.50000000000E+03  0.00000000000E+00 0.  1.
       11   -1    0    0    0    0 -0.00000000000E+00 -0.00000000000E+00 -0.50000000000E+03  0.50000000000E+03  0.00000000000E+00 0. -1.
  1000024    1    1    2    0    0 -0.18027729678E+03 -0.35012573783E+03  0.24973597304E+03  0.50000000000E+03  0.18039957800E+03 0. -1.
 -1000024    1    1    2    0    0  0.18027729678E+03  0.35012573783E+03 -0.24973597304E+03  0.50000000000E+03  0.18039957800E+03 0.  1.
</event>
<event>
 4   0  0.1092222E-03  0.2236068E+02  0.7957747E-01  0.1516063E+00
      -11   -1    0    0    0    0  0.00000000000E+00  0.00000000000E+00  0.50000000000E+03  0.50000000000E+03  0.00000000000E+00 0.  1.
       11   -1    0    0    0    0 -0.00000000000E+00 -0.00000000000E+00 -0.50000000000E+03  0.50000000000E+03  0.00000000000E+00 0. -1.
  1000024    1    1    2    0    0  0.27041864784E+03  0.35713690863E+03  0.12954912448E+03  0.50000000000E+03  0.18039957800E+03 0.  1.
 -1000024    1    1    2    0    0 -0.27041864784E+03 -0.35713690863E+03 -0.12954912448E+03  0.50000000000E+03  0.18039957800E+03 0. -1.
</event>
<event>
 4   0  0.6712789E-04  0.2236068E+02  0.7957747E-01  0.1516063E+00
      -11   -1    0    0    0    0  0.00000000000E+00  0.00000000000E+00  0.50000000000E+03  0.50000000000E+03  0.00000000000E+00 0.  1.
       11   -1    0    0    0    0 -0.00000000000E+00 -0.00000000000E+00 -0.50000000000E+03  0.50000000000E+03  0.00000000000E+00 0. -1.
  1000024    1    1    2    0    0 -0.28578837013E+03  0.36709189132E+03 -0.32008484629E+02  0.50000000000E+03  0.18039957800E+03 0.  1.
 -1000024    1    1    2    0    0  0.28578837013E+03 -0.36709189132E+03  0.32008484629E+02  0.50000000000E+03  0.18039957800E+03 0. -1.
</event>
<event>
 4   0  0.1092222E-03  0.2236068E+02  0.7957747E-01  0.1516063E+00
      -11   -1    0    0    0    0  0.00000000000E+00  0.00000000000E+00  0.50000000000E+03  0.50000000000E+03  0.00000000000E+00 0.  1.
       11   -1    0    0    0    0 -0.00000000000E+00 -0.00000000000E+00 -0.50000000000E+03  0.50000000000E+03  0.00000000000E+00 0. -1.
  1000024    1    1    2    0    0 -0.62323135906E+02 -0.42428494982E+03  0.18317778343E+03  0.50000000000E+03  0.18039957800E+03 0.  1.
 -1000024    1    1    2    0    0  0.62323135906E+02  0.42428494982E+03 -0.18317778343E+03  0.50000000000E+03  0.18039957800E+03 0. -1.
</event>
<event>
 4   0  0.1092222E-03  0.2236068E+02  0.7957747E-01  0.1516063E+00
      -11   -1    0    0    0    0  0.00000000000E+00  0.00000000000E+00  0.50000000000E+03  0.50000000000E+03  0.00000000000E+00 0.  1.
       11   -1    0    0    0    0 -0.00000000000E+00 -0.00000000000E+00 -0.50000000000E+03  0.50000000000E+03  0.00000000000E+00 0. -1.
  1000024    1    1    2    0    0 -0.80668748393E+02  0.41091525346E+03  0.20517602141E+03  0.50000000000E+03  0.18039957800E+03 0.  1.
 -1000024    1    1    2    0    0  0.80668748393E+02 -0.41091525346E+03 -0.20517602141E+03  0.50000000000E+03  0.18039957800E+03 0. -1.
</event>
<event>
 4   0  0.7366543E-04  0.2236068E+02  0.7957747E-01  0.1516063E+00
      -11   -1    0    0    0    0  0.00000000000E+00  0.00000000000E+00  0.50000000000E+03  0.50000000000E+03  0.00000000000E+00 0.  1.
       11   -1    0    0    0    0 -0.00000000000E+00 -0.00000000000E+00 -0.50000000000E+03  0.50000000000E+03  0.00000000000E+00 0. -1.
  1000024    1    1    2    0    0  0.19071987869E+03 -0.42552458890E+03  0.32778610762E+01  0.50000000000E+03  0.18039957800E+03 0. -1.
 -1000024    1    1    2    0    0 -0.19071987869E+03  0.42552458890E+03 -0.32778610762E+01  0.50000000000E+03  0.18039957800E+03 0.  1.
</event>
<event>
 4   0  0.1092222E-03  0.2236068E+02  0.7957747E-01  0.1516063E+00
      -11   -1    0    0    0    0  0.00000000000E+00  0.00000000000E+00  0.50000000000E+03  0.50000000000E+03  0.00000000000E+00 0.  1.
       11   -1    0    0    0    0 -0.00000000000E+00 -0.00000000000E+00 -0.50000000000E+03  0.50000000000E+03  0.00000000000E+00 0. -1.
  1000024    1    1    2    0    0  0.42671654628E+02  0.35983133048E+03  0.29352433588E+03  0.50000000000E+03  0.18039957800E+03 0. -1.
 -1000024    1    1    2    0    0 -0.42671654628E+02 -0.35983133048E+03 -0.29352433588E+03  0.50000000000E+03  0.18039957800E+03 0.  1.
</event>
<event>
 4   0  0.6712789E-04  0.2236068E+02  0.7957747E-01  0.1516063E+00
      -11   -1    0    0    0    0  0.00000000000E+00  0.00000000000E+00  0.50000000000E+03  0.50000000000E+03  0.00000000000E+00 0.  1.
       11   -1    0    0    0    0 -0.00000000000E+00 -0.00000000000E+00 -0.50000000000E+03  0.50000000000E+03  0.00000000000E+00 0. -1.
  1000024    1    1    2    0    0 -0.82945933181E+02  0.17656484175E+03  0.42355734096E+03  0.50000000000E+03  0.18039957800E+03 0.  1.
 -1000024    1    1    2    0    0  0.82945933181E+02 -0.17656484175E+03 -0.42355734096E+03  0.50000000000E+03  0.18039957800E+03 0. -1.
</event>
<event>
 4   0  0.1092222E-03  0.2236068E+02  0.7957747E-01  0.1516063E+00
      -11   -1    0    0    0    0  0.00000000000E+00  0.00000000000E+00  0.50000000000E+03  0.50000000000E+03  0.00000000000E+00 0.  1.
       11   -1    0    0    0    0 -0.00000000000E+00 -0.00000000000E+00 -0.50000000000E+03  0.50000000000E+03  0.00000000000E+00 0. -1.
  1000024    1    1    2    0    0 -0.76944823055E+02  0.45228907438E+03  0.83487002951E+02  0.50000000000E+03  0.18039957800E+03 0.  1.
 -1000024    1    1    2    0    0  0.76944823055E+02 -0.45228907438E+03 -0.83487002951E+02  0.50000000000E+03  0.18039957800E+03 0. -1.
</event>
<event>
 4   0  0.1092222E-03  0.2236068E+02  0.7957747E-01  0.1516063E+00
      -11   -1    0    0    0    0  0.00000000000E+00  0.00000000000E+00  0.50000000000E+03  0.50000000000E+03  0.00000000000E+00 0.  1.
       11   -1    0    0    0    0 -0.00000000000E+00 -0.00000000000E+00 -0.50000000000E+03  0.50000000000E+03  0.00000000000E+00 0. -1.
  1000024    1    1    2    0    0  0.25519306950E+03  0.24310355804E+03  0.30534103819E+03  0.50000000000E+03  0.18039957800E+03 0.  1.
 -1000024    1    1    2    0    0 -0.25519306950E+03 -0.24310355804E+03 -0.30534103819E+03  0.50000000000E+03  0.18039957800E+03 0. -1.
</event>
<event>
 4   0  0.6712789E-04  0.2236068E+02  0.7957747E-01  0.1516063E+00
      -11   -1    0    0    0    0  0.00000000000E+00  0.00000000000E+00  0.50000000000E+03  0.50000000000E+03  0.00000000000E+00 0.  1.
       11   -1    0    0    0    0 -0.00000000000E+00 -0.00000000000E+00 -0.50000000000E+03  0.50000000000E+03  0.00000000000E+00 0. -1.
  1000024    1    1    2    0    0  0.31080675936E+03 -0.32449919947E+03  0.12472137002E+03  0.50000000000E+03  0.18039957800E+03 0. -1.
 -1000024    1    1    2    0    0 -0.31080675936E+03  0.32449919947E+03 -0.12472137002E+03  0.50000000000E+03  0.18039957800E+03 0.  1.
</event>
<event>
 4   0  0.1092222E-03  0.2236068E+02  0.7957747E-01  0.1516063E+00
      -11   -1    0    0    0    0  0.00000000000E+00  0.00000000000E+00  0.50000000000E+03  0.50000000000E+03  0.00000000000E+00 0.  1.
       11   -1    0    0    0    0 -0.00000000000E+00 -0.00000000000E+00 -0.50000000000E+03  0.50000000000E+03  0.00000000000E+00 0. -1.
  1000024    1    1    2    0    0 -0.13402259071E+03  0.44263019494E+03  0.59769958734E+02  0.50000000000E+03  0.18039957800E+03 0.  1.
 -1000024    1    1    2    0    0  0.13402259071E+03 -0.44263019494E+03 -0.59769958734E+02  0.50000000000E+03  0.18039957800E+03 0. -1.
</event>
<event>
 4   0  0.1092222E-03  0.2236068E+02  0.7957747E-01  0.1516063E+00
      -11   -1    0    0    0    0  0.00000000000E+00  0.00000000000E+00  0.50000000000E+03  0.50000000000E+03  0.00000000000E+00 0.  1.
       11   -1    0    0    0    0 -0.00000000000E+00 -0.00000000000E+00 -0.50000000000E+03  0.50000000000E+03  0.00000000000E+00 0. -1.
  1000024    1    1    2    0    0  0.65563132538E+02 -0.52560612000E+02  0.45868818382E+03  0.50000000000E+03  0.18039957800E+03 0. -1.
 -1000024    1    1    2    0    0 -0.65563132538E+02  0.52560612000E+02 -0.45868818382E+03  0.50000000000E+03  0.18039957800E+03 0.  1.
</event>
<event>
 4   0  0.6712789E-04  0.2236068E+02  0.7957747E-01  0.1516063E+00
      -11   -1    0    0    0    0  0.00000000000E+00  0.00000000000E+00  0.50000000000E+03  0.50000000000E+03  0.00000000000E+00 0.  1.
       11   -1    0    0    0    0 -0.00000000000E+00 -0.00000000000E+00 -0.50000000000E+03  0.50000000000E+03  0.00000000000E+00 0. -1.
  1000024    1    1    2    0    0  0.23654766936E+02 -0.34204443727E+03  0.31607285109E+03  0.50000000000E+03  0.18039957800E+03 0.  1.
 -1000024    1    1    2    0    0 -0.23654766936E+02  0.34204443727E+03 -0.31607285109E+03  0.50000000000E+03  0.18039957800E+03 0. -1.
</event>
<event>
 4   0  0.6712789E-04  0.2236068E+02  0.7957747E-01  0.1516063E+00
      -11   -1    0    0    0    0  0.00000000000E+00  0.00000000000E+00  0.50000000000E+03  0.50000000000E+03  0.00000000000E+00 0.  1.
       11   -1    0    0    0    0 -0.00000000000E+00 -0.00000000000E+00 -0.50000000000E+03  0.50000000000E+03  0.00000000000E+00 0. -1.
  1000024    1    1    2    0    0  0.32978103734E+03  0.19803670809E+03  0.26359423726E+03  0.50000000000E+03  0.18039957800E+03 0.  1.
 -1000024    1    1    2    0    0 -0.32978103734E+03 -0.19803670809E+03 -0.26359423726E+03  0.50000000000E+03  0.18039957800E+03 0. -1.
</event>
<event>
 4   0  0.1092222E-03  0.2236068E+02  0.7957747E-01  0.1516063E+00
      -11   -1    0    0    0    0  0.00000000000E+00  0.00000000000E+00  0.50000000000E+03  0.50000000000E+03  0.00000000000E+00 0.  1.
       11   -1    0    0    0    0 -0.00000000000E+00 -0.00000000000E+00 -0.50000000000E+03  0.50000000000E+03  0.00000000000E+00 0. -1.
  1000024    1    1    2    0    0  0.24914126144E+03  0.39406488642E+03  0.98736719123E+01  0.50000000000E+03  0.18039957800E+03 0. -1.
 -1000024    1    1    2    0    0 -0.24914126144E+03 -0.39406488642E+03 -0.98736719123E+01  0.50000000000E+03  0.18039957800E+03 0.  1.
</event>
<event>
 4   0  0.1092222E-03  0.2236068E+02  0.7957747E-01  0.1516063E+00
      -11   -1    0    0    0    0  0.00000000000E+00  0.00000000000E+00  0.50000000000E+03  0.50000000000E+03  0.00000000000E+00 0.  1.
       11   -1    0    0    0    0 -0.00000000000E+00 -0.00000000000E+00 -0.50000000000E+03  0.50000000000E+03  0.00000000000E+00 0. -1.
  1000024    1    1    2    0    0 -0.39503196239E+02  0.12970453135E+03  0.44617510497E+03  0.50000000000E+03  0.18039957800E+03 0. -1.
 -1000024    1    1    2    0    0  0.39503196239E+02 -0.12970453135E+03 -0.44617510497E+03  0.50000000000E+03  0.18039957800E+03 0.  1.
</event>
<event>
 4   0  0.7366543E-04  0.2236068E+02  0.7957747E-01  0.1516063E+00
      -11   -1    0    0    0    0  0.00000000000E+00  0.00000000000E+00  0.50000000000E+03  0.50000000000E+03  0.00000000000E+00 0.  1.
       11   -1    0    0    0    0 -0.00000000000E+00 -0.00000000000E+00 -0.50000000000E+03  0.50000000000E+03  0.00000000000E+00 0. -1.
  1000024    1    1    2    0    0  0.63466750876E+02 -0.20401355640E+03  0.41449539514E+03  0.50000000000E+03  0.18039957800E+03 0. -1.
 -1000024    1    1    2    0    0 -0.63466750876E+02  0.20401355640E+03 -0.41449539514E+03  0.50000000000E+03  0.18039957800E+03 0.  1.
</event>
<event>
 4   0  0.6712789E-04  0.2236068E+02  0.7957747E-01  0.1516063E+00
      -11   -1    0    0    0    0  0.00000000000E+00  0.00000000000E+00  0.50000000000E+03  0.50000000000E+03  0.00000000000E+00 0.  1.
       11   -1    0    0    0    0 -0.00000000000E+00 -0.00000000000E+00 -0.50000000000E+03  0.50000000000E+03  0.00000000000E+00 0. -1.
  1000024    1    1    2    0    0 -0.94047813992E+01 -0.34665914343E+03  0.31176109542E+03  0.50000000000E+03  0.18039957800E+03 0.  1.
 -1000024    1    1    2    0    0  0.94047813992E+01  0.34665914343E+03 -0.31176109542E+03  0.50000000000E+03  0.18039957800E+03 0. -1.
</event>
<event>
 4   0  0.6712789E-04  0.2236068E+02  0.7957747E-01  0.1516063E+00
      -11   -1    0    0    0    0  0.00000000000E+00  0.00000000000E+00  0.50000000000E+03  0.50000000000E+03  0.00000000000E+00 0.  1.
       11   -1    0    0    0    0 -0.00000000000E+00 -0.00000000000E+00 -0.50000000000E+03  0.50000000000E+03  0.00000000000E+00 0. -1.
  1000024    1    1    2    0    0 -0.64001407693E+02  0.15362340105E+03  0.43561412135E+03  0.50000000000E+03  0.18039957800E+03 0. -1.
 -1000024    1    1    2    0    0  0.64001407693E+02 -0.15362340105E+03 -0.43561412135E+03  0.50000000000E+03  0.18039957800E+03 0.  1.
</event>
<event>
 4   0  0.1092222E-03  0.2236068E+02  0.7957747E-01  0.1516063E+00
      -11   -1    0    0    0    0  0.00000000000E+00  0.00000000000E+00  0.50000000000E+03  0.50000000000E+03  0.00000000000E+00 0.  1.
       11   -1    0    0    0    0 -0.00000000000E+00 -0.00000000000E+00 -0.50000000000E+03  0.50000000000E+03  0.00000000000E+00 0. -1.
  1000024    1    1    2    0    0  0.38121152212E+03  0.98579486876E+02  0.24983164818E+03  0.50000000000E+03  0.18039957800E+03 0. -1.
 -1000024    1    1    2    0    0 -0.38121152212E+03 -0.98579486876E+02 -0.24983164818E+03  0.50000000000E+03  0.18039957800E+03 0.  1.
</event>
<event>
 4   0  0.6712789E-04  0.2236068E+02  0.7957747E-01  0.1516063E+00
      -11   -1    0    0    0    0  0.00000000000E+00  0.00000000000E+00  0.50000000000E+03  0.50000000000E+03  0.00000000000E+00 0.  1.
       11   -1    0    0    0    0 -0.00000000000E+00 -0.00000000000E+00 -0.50000000000E+03  0.50000000000E+03  0.00000000000E+00 0. -1.
  1000024    1    1    2    0    0  0.27997799307E+03 -0.36408727312E+03  0.80676968262E+02  0.50000000000E+03  0.18039957800E+03 0.  1.
 -1000024    1    1    2    0    0 -0.27997799307E+03  0.36408727312E+03 -0.80676968262E+02  0.50000000000E+03  0.18039957800E+03 0. -1.
</event>
<event>
 4   0  0.7366543E-04  0.2236068E+02  0.7957747E-01  0.1516063E+00
      -11   -1    0    0    0    0  0.00000000000E+00  0.00000000000E+00  0.50000000000E+03  0.50000000000E+03  0.00000000000E+00 0.  1.
       11   -1    0    0    0    0 -0.00000000000E+00 -0.00000000000E+00 -0.50000000000E+03  0.50000000000E+03  0.00000000000E+00 0. -1.
  1000024    1    1    2    0    0 -0.27265614176E+03 -0.16106746687E+03  0.34230380034E+03  0.50000000000E+03  0.18039957800E+03 0. -1.
 -1000024    1    1    2    0    0  0.27265614176E+03  0.16106746687E+03 -0.34230380034E+03  0.50000000000E+03  0.18039957800E+03 0.  1.
</event>
<event>
 4   0  0.1092222E-03  0.2236068E+02  0.7957747E-01  0.1516063E+00
      -11   -1    0    0    0    0  0.00000000000E+00  0.00000000000E+00  0.50000000000E+03  0.50000000000E+03  0.00000000000E+00 0.  1.
       11   -1    0    0    0    0 -0.00000000000E+00 -0.00000000000E+00 -0.50000000000E+03  0.50000000000E+03  0.00000000000E+00 0. -1.
  1000024    1    1    2    0    0 -0.15284128961E+03  0.22800828592E+03  0.37697182123E+03  0.50000000000E+03  0.18039957800E+03 0. -1.
 -1000024    1    1    2    0    0  0.15284128961E+03 -0.22800828592E+03 -0.37697182123E+03  0.50000000000E+03  0.18039957800E+03 0.  1.
</event>
<event>
 4   0  0.6712789E-04  0.2236068E+02  0.7957747E-01  0.1516063E+00
      -11   -1    0    0    0    0  0.00000000000E+00  0.00000000000E+00  0.50000000000E+03  0.50000000000E+03  0.00000000000E+00 0.  1.
       11   -1    0    0    0    0 -0.00000000000E+00 -0.00000000000E+00 -0.50000000000E+03  0.50000000000E+03  0.00000000000E+00 0. -1.
  1000024    1    1    2    0    0  0.15295062765E+03 -0.39058866866E+03 -0.20372184388E+03  0.50000000000E+03  0.18039957800E+03 0.  1.
 -1000024    1    1    2    0    0 -0.15295062765E+03  0.39058866866E+03  0.20372184388E+03  0.50000000000E+03  0.18039957800E+03 0. -1.
</event>
<event>
 4   0  0.1092222E-03  0.2236068E+02  0.7957747E-01  0.1516063E+00
      -11   -1    0    0    0    0  0.00000000000E+00  0.00000000000E+00  0.50000000000E+03  0.50000000000E+03  0.00000000000E+00 0.  1.
       11   -1    0    0    0    0 -0.00000000000E+00 -0.00000000000E+00 -0.50000000000E+03  0.50000000000E+03  0.00000000000E+00 0. -1.
  1000024    1    1    2    0    0  0.63682988930E+02 -0.45100684027E+03  0.99966490419E+02  0.50000000000E+03  0.18039957800E+03 0. -1.
 -1000024    1    1    2    0    0 -0.63682988930E+02  0.45100684027E+03 -0.99966490419E+02  0.50000000000E+03  0.18039957800E+03 0.  1.
</event>
<event>
 4   0  0.6712789E-04  0.2236068E+02  0.7957747E-01  0.1516063E+00
      -11   -1    0    0    0    0  0.00000000000E+00  0.00000000000E+00  0.50000000000E+03  0.50000000000E+03  0.00000000000E+00 0.  1.
       11   -1    0    0    0    0 -0.00000000000E+00 -0.00000000000E+00 -0.50000000000E+03  0.50000000000E+03  0.00000000000E+00 0. -1.
  1000024    1    1    2    0    0  0.11414993275E+03 -0.27396146054E+03  0.35968166933E+03  0.50000000000E+03  0.18039957800E+03 0. -1.
 -1000024    1    1    2    0    0 -0.11414993275E+03  0.27396146054E+03 -0.35968166933E+03  0.50000000000E+03  0.18039957800E+03 0.  1.
</event>
<event>
 4   0  0.6712789E-04  0.2236068E+02  0.7957747E-01  0.1516063E+00
      -11   -1    0    0    0    0  0.00000000000E+00  0.00000000000E+00  0.50000000000E+03  0.50000000000E+03  0.00000000000E+00 0.  1.
       11   -1    0    0    0    0 -0.00000000000E+00 -0.00000000000E+00 -0.50000000000E+03  0.50000000000E+03  0.00000000000E+00 0. -1.
  1000024    1    1    2    0    0 -0.38901637352E+03  0.20050752240E+02  0.25635955361E+03  0.50000000000E+03  0.18039957800E+03 0.  1.
 -1000024    1    1    2    0    0  0.38901637352E+03 -0.20050752240E+02 -0.25635955361E+03  0.50000000000E+03  0.18039957800E+03 0. -1.
</event>
<event>
 4   0  0.6712789E-04  0.2236068E+02  0.7957747E-01  0.1516063E+00
      -11   -1    0    0    0    0  0.00000000000E+00  0.00000000000E+00  0.50000000000E+03  0.50000000000E+03  0.00000000000E+00 0.  1.
       11   -1    0    0    0    0 -0.00000000000E+00 -0.00000000000E+00 -0.50000000000E+03  0.50000000000E+03  0.00000000000E+00 0. -1.
  1000024    1    1    2    0    0  0.41406199181E+03 -0.90149485419E+02  0.19463229299E+03  0.50000000000E+03  0.18039957800E+03 0. -1.
 -1000024    1    1    2    0    0 -0.41406199181E+03  0.90149485419E+02 -0.19463229299E+03  0.50000000000E+03  0.18039957800E+03 0.  1.
</event>
<event>
 4   0  0.1092222E-03  0.2236068E+02  0.7957747E-01  0.1516063E+00
      -11   -1    0    0    0    0  0.00000000000E+00  0.00000000000E+00  0.50000000000E+03  0.50000000000E+03  0.00000000000E+00 0.  1.
       11   -1    0    0    0    0 -0.00000000000E+00 -0.00000000000E+00 -0.50000000000E+03  0.50000000000E+03  0.00000000000E+00 0. -1.
  1000024    1    1    2    0    0 -0.28378229316E+03 -0.35623455782E+03  0.10010265813E+03  0.50000000000E+03  0.18039957800E+03 0.  1.
 -1000024    1    1    2    0    0  0.28378229316E+03  0.35623455782E+03 -0.10010265813E+03  0.50000000000E+03  0.18039957800E+03 0. -1.
</event>
<event>
 4   0  0.1092222E-03  0.2236068E+02  0.7957747E-01  0.1516063E+00
      -11   -1    0    0    0    0  0.00000000000E+00  0.00000000000E+00  0.50000000000E+03  0.50000000000E+03  0.00000000000E+00 0.  1.
       11   -1    0    0    0    0 -0.00000000000E+00 -0.00000000000E+00 -0.50000000000E+03  0.50000000000E+03  0.00000000000E+00 0. -1.
  1000024    1    1    2    0    0 -0.26806246609E+03  0.30642030138E+03  0.22738756657E+03  0.50000000000E+03  0.18039957800E+03 0. -1.
 -1000024    1    1    2    0    0  0.26806246609E+03 -0.30642030138E+03 -0.22738756657E+03  0.50000000000E+03  0.18039957800E+03 0.  1.
</event>
<event>
 4   0  0.1092222E-03  0.2236068E+02  0.7957747E-01  0.1516063E+00
      -11   -1    0    0    0    0  0.00000000000E+00  0.00000000000E+00  0.50000000000E+03  0.50000000000E+03  0.00000000000E+00 0.  1.
       11   -1    0    0    0    0 -0.00000000000E+00 -0.00000000000E+00 -0.50000000000E+03  0.50000000000E+03  0.00000000000E+00 0. -1.
  1000024    1    1    2    0    0  0.10412582958E+03 -0.45232229772E+03  0.44925970883E+02  0.50000000000E+03  0.18039957800E+03 0. -1.
 -1000024    1    1    2    0    0 -0.10412582958E+03  0.45232229772E+03 -0.44925970883E+02  0.50000000000E+03  0.18039957800E+03 0.  1.
</event>
<event>
 4   0  0.7366543E-04  0.2236068E+02  0.7957747E-01  0.1516063E+00
      -11   -1    0    0    0    0  0.00000000000E+00  0.00000000000E+00  0.50000000000E+03  0.50000000000E+03  0.00000000000E+00 0.  1.
       11   -1    0    0    0    0 -0.00000000000E+00 -0.00000000000E+00 -0.50000000000E+03  0.50000000000E+03  0.00000000000E+00 0. -1.
  1000024    1    1    2    0    0  0.19128494625E+03 -0.17512539486E+02  0.42492278423E+03  0.50000000000E+03  0.18039957800E+03 0. -1.
 -1000024    1    1    2    0    0 -0.19128494625E+03  0.17512539486E+02 -0.42492278423E+03  0.50000000000E+03  0.18039957800E+03 0.  1.
</event>
<event>
 4   0  0.6712789E-04  0.2236068E+02  0.7957747E-01  0.1516063E+00
      -11   -1    0    0    0    0  0.00000000000E+00  0.00000000000E+00  0.50000000000E+03  0.50000000000E+03  0.00000000000E+00 0.  1.
       11   -1    0    0    0    0 -0.00000000000E+00 -0.00000000000E+00 -0.50000000000E+03  0.50000000000E+03  0.00000000000E+00 0. -1.
  1000024    1    1    2    0    0  0.52800051637E+02  0.89906682110E+02  0.45451615518E+03  0.50000000000E+03  0.18039957800E+03 0.  1.
 -1000024    1    1    2    0    0 -0.52800051637E+02 -0.89906682110E+02 -0.45451615518E+03  0.50000000000E+03  0.18039957800E+03 0.  1.
</event>
<event>
 4   0  0.1092222E-03  0.2236068E+02  0.7957747E-01  0.1516063E+00
      -11   -1    0    0    0    0  0.00000000000E+00  0.00000000000E+00  0.50000000000E+03  0.50000000000E+03  0.00000000000E+00 0.  1.
       11   -1    0    0    0    0 -0.00000000000E+00 -0.00000000000E+00 -0.50000000000E+03  0.50000000000E+03  0.00000000000E+00 0. -1.
  1000024    1    1    2    0    0 -0.24055727020E+03  0.10590004893E+03  0.38519264226E+03  0.50000000000E+03  0.18039957800E+03 0.  1.
 -1000024    1    1    2    0    0  0.24055727020E+03 -0.10590004893E+03 -0.38519264226E+03  0.50000000000E+03  0.18039957800E+03 0. -1.
</event>
<event>
 4   0  0.1092222E-03  0.2236068E+02  0.7957747E-01  0.1516063E+00
      -11   -1    0    0    0    0  0.00000000000E+00  0.00000000000E+00  0.50000000000E+03  0.50000000000E+03  0.00000000000E+00 0.  1.
       11   -1    0    0    0    0 -0.00000000000E+00 -0.00000000000E+00 -0.50000000000E+03  0.50000000000E+03  0.00000000000E+00 0. -1.
  1000024    1    1    2    0    0 -0.12265323700E+02  0.42405185521E+03  0.19361192677E+03  0.50000000000E+03  0.18039957800E+03 0. -1.
 -1000024    1    1    2    0    0  0.12265323700E+02 -0.42405185521E+03 -0.19361192677E+03  0.50000000000E+03  0.18039957800E+03 0.  1.
</event>
<event>
 4   0  0.7366543E-04  0.2236068E+02  0.7957747E-01  0.1516063E+00
      -11   -1    0    0    0    0  0.00000000000E+00  0.00000000000E+00  0.50000000000E+03  0.50000000000E+03  0.00000000000E+00 0.  1.
       11   -1    0    0    0    0 -0.00000000000E+00 -0.00000000000E+00 -0.50000000000E+03  0.50000000000E+03  0.00000000000E+00 0. -1.
  1000024    1    1    2    0    0  0.33600216672E+03 -0.54990955416E+02 -0.31864483526E+03  0.50000000000E+03  0.18039957800E+03 0.  1.
 -1000024    1    1    2    0    0 -0.33600216672E+03  0.54990955416E+02  0.31864483526E+03  0.50000000000E+03  0.18039957800E+03 0. -1.
</event>
<event>
 4   0  0.1092222E-03  0.2236068E+02  0.7957747E-01  0.1516063E+00
      -11   -1    0    0    0    0  0.00000000000E+00  0.00000000000E+00  0.50000000000E+03  0.50000000000E+03  0.00000000000E+00 0.  1.
       11   -1    0    0    0    0 -0.00000000000E+00 -0.00000000000E+00 -0.50000000000E+03  0.50000000000E+03  0.00000000000E+00 0. -1.
  1000024    1    1    2    0    0  0.18987664429E+03 -0.39569622510E+03  0.15756696878E+03  0.50000000000E+03  0.18039957800E+03 0.  1.
 -1000024    1    1    2    0    0 -0.18987664429E+03  0.39569622510E+03 -0.15756696878E+03  0.50000000000E+03  0.18039957800E+03 0. -1.
</event>
<event>
 4   0  0.1092222E-03  0.2236068E+02  0.7957747E-01  0.1516063E+00
      -11   -1    0    0    0    0  0.00000000000E+00  0.00000000000E+00  0.50000000000E+03  0.50000000000E+03  0.00000000000E+00 0.  1.
       11   -1    0    0    0    0 -0.00000000000E+00 -0.00000000000E+00 -0.50000000000E+03  0.50000000000E+03  0.00000000000E+00 0. -1.
  1000024    1    1    2    0    0 -0.39267969944E+03 -0.15378128574E+03  0.19902251647E+03  0.50000000000E+03  0.18039957800E+03 0.  1.
 -1000024    1    1    2    0    0  0.39267969944E+03  0.15378128574E+03 -0.19902251647E+03  0.50000000000E+03  0.18039957800E+03 0. -1.
</event>
<event>
 4   0  0.1092222E-03  0.2236068E+02  0.7957747E-01  0.1516063E+00
      -11   -1    0    0    0    0  0.00000000000E+00  0.00000000000E+00  0.50000000000E+03  0.50000000000E+03  0.00000000000E+00 0.  1.
       11   -1    0    0    0    0 -0.00000000000E+00 -0.00000000000E+00 -0.50000000000E+03  0.50000000000E+03  0.00000000000E+00 0. -1.
  1000024    1    1    2    0    0 -0.32377768179E+03 -0.21405188831E+03  0.25846816853E+03  0.50000000000E+03  0.18039957800E+03 0.  1.
 -1000024    1    1    2    0    0  0.32377768179E+03  0.21405188831E+03 -0.25846816853E+03  0.50000000000E+03  0.18039957800E+03 0. -1.
</event>
<event>
 4   0  0.7366543E-04  0.2236068E+02  0.7957747E-01  0.1516063E+00
      -11   -1    0    0    0    0  0.00000000000E+00  0.00000000000E+00  0.50000000000E+03  0.50000000000E+03  0.00000000000E+00 0.  1.
       11   -1    0    0    0    0 -0.00000000000E+00 -0.00000000000E+00 -0.50000000000E+03  0.50000000000E+03  0.00000000000E+00 0. -1.
  1000024    1    1    2    0    0  0.44766933272E+03  0.61243096099E+02  0.11531454367E+03  0.50000000000E+03  0.18039957800E+03 0.  1.
 -1000024    1    1    2    0    0 -0.44766933272E+03 -0.61243096099E+02 -0.11531454367E+03  0.50000000000E+03  0.18039957800E+03 0. -1.
</event>
<event>
 4   0  0.1092222E-03  0.2236068E+02  0.7957747E-01  0.1516063E+00
      -11   -1    0    0    0    0  0.00000000000E+00  0.00000000000E+00  0.50000000000E+03  0.50000000000E+03  0.00000000000E+00 0.  1.
       11   -1    0    0    0    0 -0.00000000000E+00 -0.00000000000E+00 -0.50000000000E+03  0.50000000000E+03  0.00000000000E+00 0. -1.
  1000024    1    1    2    0    0  0.18475071928E+03 -0.25868791712E+03  0.34117990198E+03  0.50000000000E+03  0.18039957800E+03 0. -1.
 -1000024    1    1    2    0    0 -0.18475071928E+03  0.25868791712E+03 -0.34117990198E+03  0.50000000000E+03  0.18039957800E+03 0.  1.
</event>
<event>
 4   0  0.1092222E-03  0.2236068E+02  0.7957747E-01  0.1516063E+00
      -11   -1    0    0    0    0  0.00000000000E+00  0.00000000000E+00  0.50000000000E+03  0.50000000000E+03  0.00000000000E+00 0.  1.
       11   -1    0    0    0    0 -0.00000000000E+00 -0.00000000000E+00 -0.50000000000E+03  0.50000000000E+03  0.00000000000E+00 0. -1.
  1000024    1    1    2    0    0  0.31178221525E+03  0.29218488074E+03  0.18675073756E+03  0.50000000000E+03  0.18039957800E+03 0.  1.
 -1000024    1    1    2    0    0 -0.31178221525E+03 -0.29218488074E+03 -0.18675073756E+03  0.50000000000E+03  0.18039957800E+03 0. -1.
</event>
<event>
 4   0  0.7366543E-04  0.2236068E+02  0.7957747E-01  0.1516063E+00
      -11   -1    0    0    0    0  0.00000000000E+00  0.00000000000E+00  0.50000000000E+03  0.50000000000E+03  0.00000000000E+00 0.  1.
       11   -1    0    0    0    0 -0.00000000000E+00 -0.00000000000E+00 -0.50000000000E+03  0.50000000000E+03  0.00000000000E+00 0. -1.
  1000024    1    1    2    0    0  0.20965013789E+03 -0.24876558920E+03  0.33409354015E+03  0.50000000000E+03  0.18039957800E+03 0.  1.
 -1000024    1    1    2    0    0 -0.20965013789E+03  0.24876558920E+03 -0.33409354015E+03  0.50000000000E+03  0.18039957800E+03 0.  1.
</event>
<event>
 4   0  0.1092222E-03  0.2236068E+02  0.7957747E-01  0.1516063E+00
      -11   -1    0    0    0    0  0.00000000000E+00  0.00000000000E+00  0.50000000000E+03  0.50000000000E+03  0.00000000000E+00 0.  1.
       11   -1    0    0    0    0 -0.00000000000E+00 -0.00000000000E+00 -0.50000000000E+03  0.50000000000E+03  0.00000000000E+00 0. -1.
  1000024    1    1    2    0    0  0.11347461743E+03 -0.40216631869E+03  0.20698250064E+03  0.50000000000E+03  0.18039957800E+03 0. -1.
 -1000024    1    1    2    0    0 -0.11347461743E+03  0.40216631869E+03 -0.20698250064E+03  0.50000000000E+03  0.18039957800E+03 0.  1.
</event>
<event>
 4   0  0.1092222E-03  0.2236068E+02  0.7957747E-01  0.1516063E+00
      -11   -1    0    0    0    0  0.00000000000E+00  0.00000000000E+00  0.50000000000E+03  0.50000000000E+03  0.00000000000E+00 0.  1.
       11   -1    0    0    0    0 -0.00000000000E+00 -0.00000000000E+00 -0.50000000000E+03  0.50000000000E+03  0.00000000000E+00 0. -1.
  1000024    1    1    2    0    0 -0.30075381255E+03 -0.24447696212E+03  0.25929549068E+03  0.50000000000E+03  0.18039957800E+03 0.  1.
 -1000024    1    1    2    0    0  0.30075381255E+03  0.24447696212E+03 -0.25929549068E+03  0.50000000000E+03  0.18039957800E+03 0.  1.
</event>
<event>
 4   0  0.6712789E-04  0.2236068E+02  0.7957747E-01  0.1516063E+00
      -11   -1    0    0    0    0  0.00000000000E+00  0.00000000000E+00  0.50000000000E+03  0.50000000000E+03  0.00000000000E+00 0.  1.
       11   -1    0    0    0    0 -0.00000000000E+00 -0.00000000000E+00 -0.50000000000E+03  0.50000000000E+03  0.00000000000E+00 0. -1.
  1000024    1    1    2    0    0 -0.15389373804E+03 -0.14964671266E+03  0.41397894999E+03  0.50000000000E+03  0.18039957800E+03 0.  1.
 -1000024    1    1    2    0    0  0.15389373804E+03  0.14964671266E+03 -0.41397894999E+03  0.50000000000E+03  0.18039957800E+03 0. -1.
</event>
<event>
 4   0  0.6712789E-04  0.2236068E+02  0.7957747E-01  0.1516063E+00
      -11   -1    0    0    0    0  0.00000000000E+00  0.00000000000E+00  0.50000000000E+03  0.50000000000E+03  0.00000000000E+00 0.  1.
       11   -1    0    0    0    0 -0.00000000000E+00 -0.00000000000E+00 -0.50000000000E+03  0.50000000000E+03  0.00000000000E+00 0. -1.
  1000024    1    1    2    0    0  0.20500548626E+03  0.15760140528E+03  0.38805996948E+03  0.50000000000E+03  0.18039957800E+03 0.  1.
 -1000024    1    1    2    0    0 -0.20500548626E+03 -0.15760140528E+03 -0.38805996948E+03  0.50000000000E+03  0.18039957800E+03 0. -1.
</event>
<event>
 4   0  0.7366543E-04  0.2236068E+02  0.7957747E-01  0.1516063E+00
      -11   -1    0    0    0    0  0.00000000000E+00  0.00000000000E+00  0.50000000000E+03  0.50000000000E+03  0.00000000000E+00 0.  1.
       11   -1    0    0    0    0 -0.00000000000E+00 -0.00000000000E+00 -0.50000000000E+03  0.50000000000E+03  0.00000000000E+00 0. -1.
  1000024    1    1    2    0    0 -0.44431905939E+03  0.13172749818E+03 -0.51811503954E+02  0.50000000000E+03  0.18039957800E+03 0. -1.
 -1000024    1    1    2    0    0  0.44431905939E+03 -0.13172749818E+03  0.51811503954E+02  0.50000000000E+03  0.18039957800E+03 0.  1.
</event>
<event>
 4   0  0.1092222E-03  0.2236068E+02  0.7957747E-01  0.1516063E+00
      -11   -1    0    0    0    0  0.00000000000E+00  0.00000000000E+00  0.50000000000E+03  0.50000000000E+03  0.00000000000E+00 0.  1.
       11   -1    0    0    0    0 -0.00000000000E+00 -0.00000000000E+00 -0.50000000000E+03  0.50000000000E+03  0.00000000000E+00 0. -1.
  1000024    1    1    2    0    0  0.10536737088E+03 -0.25491056516E+03  0.37599775688E+03  0.50000000000E+03  0.18039957800E+03 0.  1.
 -1000024    1    1    2    0    0 -0.10536737088E+03  0.25491056516E+03 -0.37599775688E+03  0.50000000000E+03  0.18039957800E+03 0. -1.
</event>
<event>
 4   0  0.7366543E-04  0.2236068E+02  0.7957747E-01  0.1516063E+00
      -11   -1    0    0    0    0  0.00000000000E+00  0.00000000000E+00  0.50000000000E+03  0.50000000000E+03  0.00000000000E+00 0.  1.
       11   -1    0    0    0    0 -0.00000000000E+00 -0.00000000000E+00 -0.50000000000E+03  0.50000000000E+03  0.00000000000E+00 0. -1.
  1000024    1    1    2    0    0  0.44748113306E+03  0.12877986307E+03 -0.25147061118E+02  0.50000000000E+03  0.18039957800E+03 0.  1.
 -1000024    1    1    2    0    0 -0.44748113306E+03 -0.12877986307E+03  0.25147061118E+02  0.50000000000E+03  0.18039957800E+03 0. -1.
</event>
<event>
 4   0  0.7366543E-04  0.2236068E+02  0.7957747E-01  0.1516063E+00
      -11   -1    0    0    0    0  0.00000000000E+00  0.00000000000E+00  0.50000000000E+03  0.50000000000E+03  0.00000000000E+00 0.  1.
       11   -1    0    0    0    0 -0.00000000000E+00 -0.00000000000E+00 -0.50000000000E+03  0.50000000000E+03  0.00000000000E+00 0. -1.
  1000024    1    1    2    0    0 -0.17577915595E+03  0.31146904063E+03  0.29924023346E+03  0.50000000000E+03  0.18039957800E+03 0.  1.
 -1000024    1    1    2    0    0  0.17577915595E+03 -0.31146904063E+03 -0.29924023346E+03  0.50000000000E+03  0.18039957800E+03 0. -1.
</event>
<event>
 4   0  0.7366543E-04  0.2236068E+02  0.7957747E-01  0.1516063E+00
      -11   -1    0    0    0    0  0.00000000000E+00  0.00000000000E+00  0.50000000000E+03  0.50000000000E+03  0.00000000000E+00 0.  1.
       11   -1    0    0    0    0 -0.00000000000E+00 -0.00000000000E+00 -0.50000000000E+03  0.50000000000E+03  0.00000000000E+00 0. -1.
  1000024    1    1    2    0    0 -0.10754093962E+03  0.28434156483E+03  0.35361110429E+03  0.50000000000E+03  0.18039957800E+03 0.  1.
 -1000024    1    1    2    0    0  0.10754093962E+03 -0.28434156483E+03 -0.35361110429E+03  0.50000000000E+03  0.18039957800E+03 0. -1.
</event>
<event>
 4   0  0.1092222E-03  0.2236068E+02  0.7957747E-01  0.1516063E+00
      -11   -1    0    0    0    0  0.00000000000E+00  0.00000000000E+00  0.50000000000E+03  0.50000000000E+03  0.00000000000E+00 0.  1.
       11   -1    0    0    0    0 -0.00000000000E+00 -0.00000000000E+00 -0.50000000000E+03  0.50000000000E+03  0.00000000000E+00 0. -1.
  1000024    1    1    2    0    0 -0.20635864916E+03  0.30063499022E+03  0.29067284502E+03  0.50000000000E+03  0.18039957800E+03 0.  1.
 -1000024    1    1    2    0    0  0.20635864916E+03 -0.30063499022E+03 -0.29067284502E+03  0.50000000000E+03  0.18039957800E+03 0. -1.
</event>
<event>
 4   0  0.1092222E-03  0.2236068E+02  0.7957747E-01  0.1516063E+00
      -11   -1    0    0    0    0  0.00000000000E+00  0.00000000000E+00  0.50000000000E+03  0.50000000000E+03  0.00000000000E+00 0.  1.
       11   -1    0    0    0    0 -0.00000000000E+00 -0.00000000000E+00 -0.50000000000E+03  0.50000000000E+03  0.00000000000E+00 0. -1.
  1000024    1    1    2    0    0 -0.10440048577E+02  0.41789498719E+03  0.20666585911E+03  0.50000000000E+03  0.18039957800E+03 0. -1.
 -1000024    1    1    2    0    0  0.10440048577E+02 -0.41789498719E+03 -0.20666585911E+03  0.50000000000E+03  0.18039957800E+03 0.  1.
</event>
<event>
 4   0  0.7366543E-04  0.2236068E+02  0.7957747E-01  0.1516063E+00
      -11   -1    0    0    0    0  0.00000000000E+00  0.00000000000E+00  0.50000000000E+03  0.50000000000E+03  0.00000000000E+00 0.  1.
       11   -1    0    0    0    0 -0.00000000000E+00 -0.00000000000E+00 -0.50000000000E+03  0.50000000000E+03  0.00000000000E+00 0. -1.
  1000024    1    1    2    0    0 -0.26525036952E+03  0.24735941172E+03  0.29310672998E+03  0.50000000000E+03  0.18039957800E+03 0.  1.
 -1000024    1    1    2    0    0  0.26525036952E+03 -0.24735941172E+03 -0.29310672998E+03  0.50000000000E+03  0.18039957800E+03 0. -1.
</event>
<event>
 4   0  0.7366543E-04  0.2236068E+02  0.7957747E-01  0.1516063E+00
      -11   -1    0    0    0    0  0.00000000000E+00  0.00000000000E+00  0.50000000000E+03  0.50000000000E+03  0.00000000000E+00 0.  1.
       11   -1    0    0    0    0 -0.00000000000E+00 -0.00000000000E+00 -0.50000000000E+03  0.50000000000E+03  0.00000000000E+00 0. -1.
  1000024    1    1    2    0    0 -0.43989180376E+03 -0.30215107977E+02 -0.15178353170E+03  0.50000000000E+03  0.18039957800E+03 0. -1.
 -1000024    1    1    2    0    0  0.43989180376E+03  0.30215107977E+02  0.15178353170E+03  0.50000000000E+03  0.18039957800E+03 0.  1.
</event>
<event>
 4   0  0.1092222E-03  0.2236068E+02  0.7957747E-01  0.1516063E+00
      -11   -1    0    0    0    0  0.00000000000E+00  0.00000000000E+00  0.50000000000E+03  0.50000000000E+03  0.00000000000E+00 0.  1.
       11   -1    0    0    0    0 -0.00000000000E+00 -0.00000000000E+00 -0.50000000000E+03  0.50000000000E+03  0.00000000000E+00 0. -1.
  1000024    1    1    2    0    0  0.44864352535E+03 -0.85032385701E+02  0.94575222985E+02  0.50000000000E+03  0.18039957800E+03 0.  1.
 -1000024    1    1    2    0    0 -0.44864352535E+03  0.85032385701E+02 -0.94575222985E+02  0.50000000000E+03  0.18039957800E+03 0. -1.
</event>
<event>
 4   0  0.1092222E-03  0.2236068E+02  0.7957747E-01  0.1516063E+00
      -11   -1    0    0    0    0  0.00000000000E+00  0.00000000000E+00  0.50000000000E+03  0.50000000000E+03  0.00000000000E+00 0.  1.
       11   -1    0    0    0    0 -0.00000000000E+00 -0.00000000000E+00 -0.50000000000E+03  0.50000000000E+03  0.00000000000E+00 0. -1.
  1000024    1    1    2    0    0  0.54585651072E+02 -0.31567568037E+03  0.33885876671E+03  0.50000000000E+03  0.18039957800E+03 0.  1.
 -1000024    1    1    2    0    0 -0.54585651072E+02  0.31567568037E+03 -0.33885876671E+03  0.50000000000E+03  0.18039957800E+03 0. -1.
</event>
<event>
 4   0  0.6712789E-04  0.2236068E+02  0.7957747E-01  0.1516063E+00
      -11   -1    0    0    0    0  0.00000000000E+00  0.00000000000E+00  0.50000000000E+03  0.50000000000E+03  0.00000000000E+00 0.  1.
       11   -1    0    0    0    0 -0.00000000000E+00 -0.00000000000E+00 -0.50000000000E+03  0.50000000000E+03  0.00000000000E+00 0. -1.
  1000024    1    1    2    0    0  0.21764891333E+03 -0.38758050018E+03 -0.14094785794E+03  0.50000000000E+03  0.18039957800E+03 0. -1.
 -1000024    1    1    2    0    0 -0.21764891333E+03  0.38758050018E+03  0.14094785794E+03  0.50000000000E+03  0.18039957800E+03 0.  1.
</event>
<event>
 4   0  0.7366543E-04  0.2236068E+02  0.7957747E-01  0.1516063E+00
      -11   -1    0    0    0    0  0.00000000000E+00  0.00000000000E+00  0.50000000000E+03  0.50000000000E+03  0.00000000000E+00 0.  1.
       11   -1    0    0    0    0 -0.00000000000E+00 -0.00000000000E+00 -0.50000000000E+03  0.50000000000E+03  0.00000000000E+00 0. -1.
  1000024    1    1    2    0    0  0.21555746962E+03 -0.11312907558E+03  0.39773456200E+03  0.50000000000E+03  0.18039957800E+03 0.  1.
 -1000024    1    1    2    0    0 -0.21555746962E+03  0.11312907558E+03 -0.39773456200E+03  0.50000000000E+03  0.18039957800E+03 0. -1.
</event>
<event>
 4   0  0.7366543E-04  0.2236068E+02  0.7957747E-01  0.1516063E+00
      -11   -1    0    0    0    0  0.00000000000E+00  0.00000000000E+00  0.50000000000E+03  0.50000000000E+03  0.00000000000E+00 0.  1.
       11   -1    0    0    0    0 -0.00000000000E+00 -0.00000000000E+00 -0.50000000000E+03  0.50000000000E+03  0.00000000000E+00 0. -1.
  1000024    1    1    2    0    0  0.19962687493E+03  0.27633300924E+03  0.31819046350E+03  0.50000000000E+03  0.18039957800E+03 0. -1.
 -1000024    1    1    2    0    0 -0.19962687493E+03 -0.27633300924E+03 -0.31819046350E+03  0.50000000000E+03  0.18039957800E+03 0.  1.
</event>
<event>
 4   0  0.1092222E-03  0.2236068E+02  0.7957747E-01  0.1516063E+00
      -11   -1    0    0    0    0  0.00000000000E+00  0.00000000000E+00  0.50000000000E+03  0.50000000000E+03  0.00000000000E+00 0.  1.
       11   -1    0    0    0    0 -0.00000000000E+00 -0.00000000000E+00 -0.50000000000E+03  0.50000000000E+03  0.00000000000E+00 0. -1.
  1000024    1    1    2    0    0 -0.19727642204E+03  0.42058208242E+03  0.40604402566E+02  0.50000000000E+03  0.18039957800E+03 0. -1.
 -1000024    1    1    2    0    0  0.19727642204E+03 -0.42058208242E+03 -0.40604402566E+02  0.50000000000E+03  0.18039957800E+03 0.  1.
</event>
<event>
 4   0  0.6712789E-04  0.2236068E+02  0.7957747E-01  0.1516063E+00
      -11   -1    0    0    0    0  0.00000000000E+00  0.00000000000E+00  0.50000000000E+03  0.50000000000E+03  0.00000000000E+00 0.  1.
       11   -1    0    0    0    0 -0.00000000000E+00 -0.00000000000E+00 -0.50000000000E+03  0.50000000000E+03  0.00000000000E+00 0. -1.
  1000024    1    1    2    0    0  0.40054071059E+03 -0.23468821537E+03  0.44097312661E+02  0.50000000000E+03  0.18039957800E+03 0.  1.
 -1000024    1    1    2    0    0 -0.40054071059E+03  0.23468821537E+03 -0.44097312661E+02  0.50000000000E+03  0.18039957800E+03 0. -1.
</event>
<event>
 4   0  0.6712789E-04  0.2236068E+02  0.7957747E-01  0.1516063E+00
      -11   -1    0    0    0    0  0.00000000000E+00  0.00000000000E+00  0.50000000000E+03  0.50000000000E+03  0.00000000000E+00 0.  1.
       11   -1    0    0    0    0 -0.00000000000E+00 -0.00000000000E+00 -0.50000000000E+03  0.50000000000E+03  0.00000000000E+00 0. -1.
  1000024    1    1    2    0    0 -0.13510630209E+03  0.43889204724E+03  0.81092849610E+02  0.50000000000E+03  0.18039957800E+03 0. -1.
 -1000024    1    1    2    0    0  0.13510630209E+03 -0.43889204724E+03 -0.81092849610E+02  0.50000000000E+03  0.18039957800E+03 0.  1.
</event>
<event>
 4   0  0.1092222E-03  0.2236068E+02  0.7957747E-01  0.1516063E+00
      -11   -1    0    0    0    0  0.00000000000E+00  0.00000000000E+00  0.50000000000E+03  0.50000000000E+03  0.00000000000E+00 0.  1.
       11   -1    0    0    0    0 -0.00000000000E+00 -0.00000000000E+00 -0.50000000000E+03  0.50000000000E+03  0.00000000000E+00 0. -1.
  1000024    1    1    2    0    0  0.47088842427E+02 -0.46096749831E+03  0.52417541723E+02  0.50000000000E+03  0.18039957800E+03 0.  1.
 -1000024    1    1    2    0    0 -0.47088842427E+02  0.46096749831E+03 -0.52417541723E+02  0.50000000000E+03  0.18039957800E+03 0. -1.
</event>
<event>
 4   0  0.7366543E-04  0.2236068E+02  0.7957747E-01  0.1516063E+00
      -11   -1    0    0    0    0  0.00000000000E+00  0.00000000000E+00  0.50000000000E+03  0.50000000000E+03  0.00000000000E+00 0.  1.
       11   -1    0    0    0    0 -0.00000000000E+00 -0.00000000000E+00 -0.50000000000E+03  0.50000000000E+03  0.00000000000E+00 0. -1.
  1000024    1    1    2    0    0 -0.10913324537E+03  0.38566966397E+03  0.23833765398E+03  0.50000000000E+03  0.18039957800E+03 0. -1.
 -1000024    1    1    2    0    0  0.10913324537E+03 -0.38566966397E+03 -0.23833765398E+03  0.50000000000E+03  0.18039957800E+03 0.  1.
</event>
<event>
 4   0  0.7366543E-04  0.2236068E+02  0.7957747E-01  0.1516063E+00
      -11   -1    0    0    0    0  0.00000000000E+00  0.00000000000E+00  0.50000000000E+03  0.50000000000E+03  0.00000000000E+00 0.  1.
       11   -1    0    0    0    0 -0.00000000000E+00 -0.00000000000E+00 -0.50000000000E+03  0.50000000000E+03  0.00000000000E+00 0. -1.
  1000024    1    1    2    0    0  0.22140055460E+02  0.45191301325E+03  0.11287355163E+03  0.50000000000E+03  0.18039957800E+03 0.  1.
 -1000024    1    1    2    0    0 -0.22140055460E+02 -0.45191301325E+03 -0.11287355163E+03  0.50000000000E+03  0.18039957800E+03 0. -1.
</event>
<event>
 4   0  0.6712789E-04  0.2236068E+02  0.7957747E-01  0.1516063E+00
      -11   -1    0    0    0    0  0.00000000000E+00  0.00000000000E+00  0.50000000000E+03  0.50000000000E+03  0.00000000000E+00 0.  1.
       11   -1    0    0    0    0 -0.00000000000E+00 -0.00000000000E+00 -0.50000000000E+03  0.50000000000E+03  0.00000000000E+00 0. -1.
  1000024    1    1    2    0    0 -0.34108303277E+03 -0.95347175362E+02  0.30335997291E+03  0.50000000000E+03  0.18039957800E+03 0.  1.
 -1000024    1    1    2    0    0  0.34108303277E+03  0.95347175362E+02 -0.30335997291E+03  0.50000000000E+03  0.18039957800E+03 0. -1.
</event>
<event>
 4   0  0.1092222E-03  0.2236068E+02  0.7957747E-01  0.1516063E+00
      -11   -1    0    0    0    0  0.00000000000E+00  0.00000000000E+00  0.50000000000E+03  0.50000000000E+03  0.00000000000E+00 0.  1.
       11   -1    0    0    0    0 -0.00000000000E+00 -0.00000000000E+00 -0.50000000000E+03  0.50000000000E+03  0.00000000000E+00 0. -1.
  1000024    1    1    2    0    0 -0.34698772129E+03  0.74450060783E+02  0.30251066424E+03  0.50000000000E+03  0.18039957800E+03 0.  1.
 -1000024    1    1    2    0    0  0.34698772129E+03 -0.74450060783E+02 -0.30251066424E+03  0.50000000000E+03  0.18039957800E+03 0. -1.
</event>
<event>
 4   0  0.1092222E-03  0.2236068E+02  0.7957747E-01  0.1516063E+00
      -11   -1    0    0    0    0  0.00000000000E+00  0.00000000000E+00  0.50000000000E+03  0.50000000000E+03  0.00000000000E+00 0.  1.
       11   -1    0    0    0    0 -0.00000000000E+00 -0.00000000000E+00 -0.50000000000E+03  0.50000000000E+03  0.00000000000E+00 0. -1.
  1000024    1    1    2    0    0 -0.18305165078E+03 -0.21308207043E+02  0.42836204981E+03  0.50000000000E+03  0.18039957800E+03 0.  1.
 -1000024    1    1    2    0    0  0.18305165078E+03  0.21308207043E+02 -0.42836204981E+03  0.50000000000E+03  0.18039957800E+03 0. -1.
</event>
<event>
 4   0  0.7366543E-04  0.2236068E+02  0.7957747E-01  0.1516063E+00
      -11   -1    0    0    0    0  0.00000000000E+00  0.00000000000E+00  0.50000000000E+03  0.50000000000E+03  0.00000000000E+00 0.  1.
       11   -1    0    0    0    0 -0.00000000000E+00 -0.00000000000E+00 -0.50000000000E+03  0.50000000000E+03  0.00000000000E+00 0. -1.
  1000024    1    1    2    0    0  0.42973114451E+03 -0.15944852939E+03  0.85809685755E+02  0.50000000000E+03  0.18039957800E+03 0.  1.
 -1000024    1    1    2    0    0 -0.42973114451E+03  0.15944852939E+03 -0.85809685755E+02  0.50000000000E+03  0.18039957800E+03 0. -1.
</event>
<event>
 4   0  0.1092222E-03  0.2236068E+02  0.7957747E-01  0.1516063E+00
      -11   -1    0    0    0    0  0.00000000000E+00  0.00000000000E+00  0.50000000000E+03  0.50000000000E+03  0.00000000000E+00 0.  1.
       11   -1    0    0    0    0 -0.00000000000E+00 -0.00000000000E+00 -0.50000000000E+03  0.50000000000E+03  0.00000000000E+00 0. -1.
  1000024    1    1    2    0    0  0.46462490721E+03  0.39404906933E+02  0.51904884837E+01  0.50000000000E+03  0.18039957800E+03 0. -1.
 -1000024    1    1    2    0    0 -0.46462490721E+03 -0.39404906933E+02 -0.51904884837E+01  0.50000000000E+03  0.18039957800E+03 0.  1.
</event>
<event>
 4   0  0.1092222E-03  0.2236068E+02  0.7957747E-01  0.1516063E+00
      -11   -1    0    0    0    0  0.00000000000E+00  0.00000000000E+00  0.50000000000E+03  0.50000000000E+03  0.00000000000E+00 0.  1.
       11   -1    0    0    0    0 -0.00000000000E+00 -0.00000000000E+00 -0.50000000000E+03  0.50000000000E+03  0.00000000000E+00 0. -1.
  1000024    1    1    2    0    0  0.21037433411E+03  0.11132133998E+02  0.41602248424E+03  0.50000000000E+03  0.18039957800E+03 0. -1.
 -1000024    1    1    2    0    0 -0.21037433411E+03 -0.11132133998E+02 -0.41602248424E+03  0.50000000000E+03  0.18039957800E+03 0. -1.
</event>
<event>
 4   0  0.1092222E-03  0.2236068E+02  0.7957747E-01  0.1516063E+00
      -11   -1    0    0    0    0  0.00000000000E+00  0.00000000000E+00  0.50000000000E+03  0.50000000000E+03  0.00000000000E+00 0.  1.
       11   -1    0    0    0    0 -0.00000000000E+00 -0.00000000000E+00 -0.50000000000E+03  0.50000000000E+03  0.00000000000E+00 0. -1.
  1000024    1    1    2    0    0 -0.20625940604E+03  0.39206558547E+03  0.14559404646E+03  0.50000000000E+03  0.18039957800E+03 0.  1.
 -1000024    1    1    2    0    0  0.20625940604E+03 -0.39206558547E+03 -0.14559404646E+03  0.50000000000E+03  0.18039957800E+03 0. -1.
</event>
<event>
 4   0  0.6712789E-04  0.2236068E+02  0.7957747E-01  0.1516063E+00
      -11   -1    0    0    0    0  0.00000000000E+00  0.00000000000E+00  0.50000000000E+03  0.50000000000E+03  0.00000000000E+00 0.  1.
       11   -1    0    0    0    0 -0.00000000000E+00 -0.00000000000E+00 -0.50000000000E+03  0.50000000000E+03  0.00000000000E+00 0. -1.
  1000024    1    1    2    0    0 -0.17126029873E+03  0.28580358532E+03  0.32625482825E+03  0.50000000000E+03  0.18039957800E+03 0.  1.
 -1000024    1    1    2    0    0  0.17126029873E+03 -0.28580358532E+03 -0.32625482825E+03  0.50000000000E+03  0.18039957800E+03 0. -1.
</event>
<event>
 4   0  0.6712789E-04  0.2236068E+02  0.7957747E-01  0.1516063E+00
      -11   -1    0    0    0    0  0.00000000000E+00  0.00000000000E+00  0.50000000000E+03  0.50000000000E+03  0.00000000000E+00 0.  1.
       11   -1    0    0    0    0 -0.00000000000E+00 -0.00000000000E+00 -0.50000000000E+03  0.50000000000E+03  0.00000000000E+00 0. -1.
  1000024    1    1    2    0    0 -0.15179449484E+03  0.14707222728E+03  0.41567316916E+03  0.50000000000E+03  0.18039957800E+03 0.  1.
 -1000024    1    1    2    0    0  0.15179449484E+03 -0.14707222728E+03 -0.41567316916E+03  0.50000000000E+03  0.18039957800E+03 0.  1.
</event>
<event>
 4   0  0.7366543E-04  0.2236068E+02  0.7957747E-01  0.1516063E+00
      -11   -1    0    0    0    0  0.00000000000E+00  0.00000000000E+00  0.50000000000E+03  0.50000000000E+03  0.00000000000E+00 0.  1.
       11   -1    0    0    0    0 -0.00000000000E+00 -0.00000000000E+00 -0.50000000000E+03  0.50000000000E+03  0.00000000000E+00 0. -1.
  1000024    1    1    2    0    0 -0.10287384277E+03  0.22632148989E+03  0.39452699267E+03  0.50000000000E+03  0.18039957800E+03 0.  1.
 -1000024    1    1    2    0    0  0.10287384277E+03 -0.22632148989E+03 -0.39452699267E+03  0.50000000000E+03  0.18039957800E+03 0. -1.
</event>
<event>
 4   0  0.1092222E-03  0.2236068E+02  0.7957747E-01  0.1516063E+00
      -11   -1    0    0    0    0  0.00000000000E+00  0.00000000000E+00  0.50000000000E+03  0.50000000000E+03  0.00000000000E+00 0.  1.
       11   -1    0    0    0    0 -0.00000000000E+00 -0.00000000000E+00 -0.50000000000E+03  0.50000000000E+03  0.00000000000E+00 0. -1.
  1000024    1    1    2    0    0 -0.14608027852E+03  0.44039366228E+03  0.46582901471E+02  0.50000000000E+03  0.18039957800E+03 0.  1.
 -1000024    1    1    2    0    0  0.14608027852E+03 -0.44039366228E+03 -0.46582901471E+02  0.50000000000E+03  0.18039957800E+03 0. -1.
</event>
<event>
 4   0  0.1092222E-03  0.2236068E+02  0.7957747E-01  0.1516063E+00
      -11   -1    0    0    0    0  0.00000000000E+00  0.00000000000E+00  0.50000000000E+03  0.50000000000E+03  0.00000000000E+00 0.  1.
       11   -1    0    0    0    0 -0.00000000000E+00 -0.00000000000E+00 -0.50000000000E+03  0.50000000000E+03  0.00000000000E+00 0. -1.
  1000024    1    1    2    0    0 -0.19068970104E+02  0.32524121263E+03  0.33363231295E+03  0.50000000000E+03  0.18039957800E+03 0. -1.
 -1000024    1    1    2    0    0  0.19068970104E+02 -0.32524121263E+03 -0.33363231295E+03  0.50000000000E+03  0.18039957800E+03 0.  1.
</event>
<event>
 4   0  0.1092222E-03  0.2236068E+02  0.7957747E-01  0.1516063E+00
      -11   -1    0    0    0    0  0.00000000000E+00  0.00000000000E+00  0.50000000000E+03  0.50000000000E+03  0.00000000000E+00 0.  1.
       11   -1    0    0    0    0 -0.00000000000E+00 -0.00000000000E+00 -0.50000000000E+03  0.50000000000E+03  0.00000000000E+00 0. -1.
  1000024    1    1    2    0    0  0.21736588783E+03  0.25616147314E+02  0.41176677387E+03  0.50000000000E+03  0.18039957800E+03 0. -1.
 -1000024    1    1    2    0    0 -0.21736588783E+03 -0.25616147314E+02 -0.41176677387E+03  0.50000000000E+03  0.18039957800E+03 0.  1.
</event>
<event>
 4   0  0.7366543E-04  0.2236068E+02  0.7957747E-01  0.1516063E+00
      -11   -1    0    0    0    0  0.00000000000E+00  0.00000000000E+00  0.50000000000E+03  0.50000000000E+03  0.00000000000E+00 0.  1.
       11   -1    0    0    0    0 -0.00000000000E+00 -0.00000000000E+00 -0.50000000000E+03  0.50000000000E+03  0.00000000000E+00 0. -1.
  1000024    1    1    2    0    0 -0.10347645947E+02  0.28102810521E+02  0.46535916293E+03  0.50000000000E+03  0.18039957800E+03 0.  1.
 -1000024    1    1    2    0    0  0.10347645947E+02 -0.28102810521E+02 -0.46535916293E+03  0.50000000000E+03  0.18039957800E+03 0.  1.
</event>
<event>
 4   0  0.6712789E-04  0.2236068E+02  0.7957747E-01  0.1516063E+00
      -11   -1    0    0    0    0  0.00000000000E+00  0.00000000000E+00  0.50000000000E+03  0.50000000000E+03  0.00000000000E+00 0.  1.
       11   -1    0    0    0    0 -0.00000000000E+00 -0.00000000000E+00 -0.50000000000E+03  0.50000000000E+03  0.00000000000E+00 0. -1.
  1000024    1    1    2    0    0 -0.35387871626E+03  0.12387804991E+03  0.27727256480E+03  0.50000000000E+03  0.18039957800E+03 0.  1.
 -1000024    1    1    2    0    0  0.35387871626E+03 -0.12387804991E+03 -0.27727256480E+03  0.50000000000E+03  0.18039957800E+03 0. -1.
</event>
<event>
 4   0  0.6712789E-04  0.2236068E+02  0.7957747E-01  0.1516063E+00
      -11   -1    0    0    0    0  0.00000000000E+00  0.00000000000E+00  0.50000000000E+03  0.50000000000E+03  0.00000000000E+00 0.  1.
       11   -1    0    0    0    0 -0.00000000000E+00 -0.00000000000E+00 -0.50000000000E+03  0.50000000000E+03  0.00000000000E+00 0. -1.
  1000024    1    1    2    0    0 -0.96847263540E+02 -0.43290253458E+03  0.14377758989E+03  0.50000000000E+03  0.18039957800E+03 0. -1.
 -1000024    1    1    2    0    0  0.96847263540E+02  0.43290253458E+03 -0.14377758989E+03  0.50000000000E+03  0.18039957800E+03 0.  1.
</event>
<event>
 4   0  0.1092222E-03  0.2236068E+02  0.7957747E-01  0.1516063E+00
      -11   -1    0    0    0    0  0.00000000000E+00  0.00000000000E+00  0.50000000000E+03  0.50000000000E+03  0.00000000000E+00 0.  1.
       11   -1    0    0    0    0 -0.00000000000E+00 -0.00000000000E+00 -0.50000000000E+03  0.50000000000E+03  0.00000000000E+00 0. -1.
  1000024    1    1    2    0    0  0.13319395748E+03  0.31622966052E+03  0.31577549581E+03  0.50000000000E+03  0.18039957800E+03 0.  1.
 -1000024    1    1    2    0    0 -0.13319395748E+03 -0.31622966052E+03 -0.31577549581E+03  0.50000000000E+03  0.18039957800E+03 0. -1.
</event>
<event>
 4   0  0.1092222E-03  0.2236068E+02  0.7957747E-01  0.1516063E+00
      -11   -1    0    0    0    0  0.00000000000E+00  0.00000000000E+00  0.50000000000E+03  0.50000000000E+03  0.00000000000E+00 0.  1.
       11   -1    0    0    0    0 -0.00000000000E+00 -0.00000000000E+00 -0.50000000000E+03  0.50000000000E+03  0.00000000000E+00 0. -1.
  1000024    1    1    2    0    0 -0.27445402495E+02 -0.46329339615E+03  0.45408933259E+02  0.50000000000E+03  0.18039957800E+03 0. -1.
 -1000024    1    1    2    0    0  0.27445402495E+02  0.46329339615E+03 -0.45408933259E+02  0.50000000000E+03  0.18039957800E+03 0.  1.
</event>
<event>
 4   0  0.6712789E-04  0.2236068E+02  0.7957747E-01  0.1516063E+00
      -11   -1    0    0    0    0  0.00000000000E+00  0.00000000000E+00  0.50000000000E+03  0.50000000000E+03  0.00000000000E+00 0.  1.
       11   -1    0    0    0    0 -0.00000000000E+00 -0.00000000000E+00 -0.50000000000E+03  0.50000000000E+03  0.00000000000E+00 0. -1.
  1000024    1    1    2    0    0 -0.27451243375E+03  0.17589270948E+03  0.33340766447E+03  0.50000000000E+03  0.18039957800E+03 0. -1.
 -1000024    1    1    2    0    0  0.27451243375E+03 -0.17589270948E+03 -0.33340766447E+03  0.50000000000E+03  0.18039957800E+03 0.  1.
</event>
<event>
 4   0  0.1092222E-03  0.2236068E+02  0.7957747E-01  0.1516063E+00
      -11   -1    0    0    0    0  0.00000000000E+00  0.00000000000E+00  0.50000000000E+03  0.50000000000E+03  0.00000000000E+00 0.  1.
       11   -1    0    0    0    0 -0.00000000000E+00 -0.00000000000E+00 -0.50000000000E+03  0.50000000000E+03  0.00000000000E+00 0. -1.
  1000024    1    1    2    0    0  0.13889095027E+03 -0.34352674038E+03  0.28311600950E+03  0.50000000000E+03  0.18039957800E+03 0. -1.
 -1000024    1    1    2    0    0 -0.13889095027E+03  0.34352674038E+03 -0.28311600950E+03  0.50000000000E+03  0.18039957800E+03 0.  1.
</event>
<event>
 4   0  0.1092222E-03  0.2236068E+02  0.7957747E-01  0.1516063E+00
      -11   -1    0    0    0    0  0.00000000000E+00  0.00000000000E+00  0.50000000000E+03  0.50000000000E+03  0.00000000000E+00 0.  1.
       11   -1    0    0    0    0 -0.00000000000E+00 -0.00000000000E+00 -0.50000000000E+03  0.50000000000E+03  0.00000000000E+00 0. -1.
  1000024    1    1    2    0    0  0.35092791687E+03  0.23634108873E+03 -0.19608283759E+03  0.50000000000E+03  0.18039957800E+03 0. -1.
 -1000024    1    1    2    0    0 -0.35092791687E+03 -0.23634108873E+03  0.19608283759E+03  0.50000000000E+03  0.18039957800E+03 0.  1.
</event>
<event>
 4   0  0.6712789E-04  0.2236068E+02  0.7957747E-01  0.1516063E+00
      -11   -1    0    0    0    0  0.00000000000E+00  0.00000000000E+00  0.50000000000E+03  0.50000000000E+03  0.00000000000E+00 0.  1.
       11   -1    0    0    0    0 -0.00000000000E+00 -0.00000000000E+00 -0.50000000000E+03  0.50000000000E+03  0.00000000000E+00 0. -1.
  1000024    1    1    2    0    0  0.32489018451E+03  0.22760120926E+03  0.24515311503E+03  0.50000000000E+03  0.18039957800E+03 0.  1.
 -1000024    1    1    2    0    0 -0.32489018451E+03 -0.22760120926E+03 -0.24515311503E+03  0.50000000000E+03  0.18039957800E+03 0. -1.
</event>
<event>
 4   0  0.7366543E-04  0.2236068E+02  0.7957747E-01  0.1516063E+00
      -11   -1    0    0    0    0  0.00000000000E+00  0.00000000000E+00  0.50000000000E+03  0.50000000000E+03  0.00000000000E+00 0.  1.
       11   -1    0    0    0    0 -0.00000000000E+00 -0.00000000000E+00 -0.50000000000E+03  0.50000000000E+03  0.00000000000E+00 0. -1.
  1000024    1    1    2    0    0  0.40898004177E+03  0.14164163137E+03  0.17357697416E+03  0.50000000000E+03  0.18039957800E+03 0. -1.
 -1000024    1    1    2    0    0 -0.40898004177E+03 -0.14164163137E+03 -0.17357697416E+03  0.50000000000E+03  0.18039957800E+03 0.  1.
</event>
<event>
 4   0  0.6712789E-04  0.2236068E+02  0.7957747E-01  0.1516063E+00
      -11   -1    0    0    0    0  0.00000000000E+00  0.00000000000E+00  0.50000000000E+03  0.50000000000E+03  0.00000000000E+00 0.  1.
       11   -1    0    0    0    0 -0.00000000000E+00 -0.00000000000E+00 -0.50000000000E+03  0.50000000000E+03  0.00000000000E+00 0. -1.
  1000024    1    1    2    0    0  0.20236462512E+03  0.36934544463E+03  0.20022111101E+03  0.50000000000E+03  0.18039957800E+03 0. -1.
 -1000024    1    1    2    0    0 -0.20236462512E+03 -0.36934544463E+03 -0.20022111101E+03  0.50000000000E+03  0.18039957800E+03 0.  1.
</event>
<event>
 4   0  0.7366543E-04  0.2236068E+02  0.7957747E-01  0.1516063E+00
      -11   -1    0    0    0    0  0.00000000000E+00  0.00000000000E+00  0.50000000000E+03  0.50000000000E+03  0.00000000000E+00 0.  1.
       11   -1    0    0    0    0 -0.00000000000E+00 -0.00000000000E+00 -0.50000000000E+03  0.50000000000E+03  0.00000000000E+00 0. -1.
  1000024    1    1    2    0    0  0.18865304865E+03 -0.30856591890E+03  0.29436897457E+03  0.50000000000E+03  0.18039957800E+03 0.  1.
 -1000024    1    1    2    0    0 -0.18865304865E+03  0.30856591890E+03 -0.29436897457E+03  0.50000000000E+03  0.18039957800E+03 0. -1.
</event>
<event>
 4   0  0.1092222E-03  0.2236068E+02  0.7957747E-01  0.1516063E+00
      -11   -1    0    0    0    0  0.00000000000E+00  0.00000000000E+00  0.50000000000E+03  0.50000000000E+03  0.00000000000E+00 0.  1.
       11   -1    0    0    0    0 -0.00000000000E+00 -0.00000000000E+00 -0.50000000000E+03  0.50000000000E+03  0.00000000000E+00 0. -1.
  1000024    1    1    2    0    0  0.42839993303E+01  0.26082845623E+03  0.38653092506E+03  0.50000000000E+03  0.18039957800E+03 0.  1.
 -1000024    1    1    2    0    0 -0.42839993303E+01 -0.26082845623E+03 -0.38653092506E+03  0.50000000000E+03  0.18039957800E+03 0. -1.
</event>
<event>
 4   0  0.1092222E-03  0.2236068E+02  0.7957747E-01  0.1516063E+00
      -11   -1    0    0    0    0  0.00000000000E+00  0.00000000000E+00  0.50000000000E+03  0.50000000000E+03  0.00000000000E+00 0.  1.
       11   -1    0    0    0    0 -0.00000000000E+00 -0.00000000000E+00 -0.50000000000E+03  0.50000000000E+03  0.00000000000E+00 0. -1.
  1000024    1    1    2    0    0  0.40235508250E+03  0.12298607614E+03  0.20109899283E+03  0.50000000000E+03  0.18039957800E+03 0.  1.
 -1000024    1    1    2    0    0 -0.40235508250E+03 -0.12298607614E+03 -0.20109899283E+03  0.50000000000E+03  0.18039957800E+03 0. -1.
</event>
<event>
 4   0  0.6712789E-04  0.2236068E+02  0.7957747E-01  0.1516063E+00
      -11   -1    0    0    0    0  0.00000000000E+00  0.00000000000E+00  0.50000000000E+03  0.50000000000E+03  0.00000000000E+00 0.  1.
       11   -1    0    0    0    0 -0.00000000000E+00 -0.00000000000E+00 -0.50000000000E+03  0.50000000000E+03  0.00000000000E+00 0. -1.
  1000024    1    1    2    0    0  0.41124949450E+03 -0.17215906653E+03 -0.13671540271E+03  0.50000000000E+03  0.18039957800E+03 0.  1.
 -1000024    1    1    2    0    0 -0.41124949450E+03  0.17215906653E+03  0.13671540271E+03  0.50000000000E+03  0.18039957800E+03 0. -1.
</event>
<event>
 4   0  0.6712789E-04  0.2236068E+02  0.7957747E-01  0.1516063E+00
      -11   -1    0    0    0    0  0.00000000000E+00  0.00000000000E+00  0.50000000000E+03  0.50000000000E+03  0.00000000000E+00 0.  1.
       11   -1    0    0    0    0 -0.00000000000E+00 -0.00000000000E+00 -0.50000000000E+03  0.50000000000E+03  0.00000000000E+00 0. -1.
  1000024    1    1    2    0    0  0.17734785839E+03  0.14518483189E+03  0.40610970682E+03  0.50000000000E+03  0.18039957800E+03 0. -1.
 -1000024    1    1    2    0    0 -0.17734785839E+03 -0.14518483189E+03 -0.40610970682E+03  0.50000000000E+03  0.18039957800E+03 0.  1.
</event>
<event>
 4   0  0.7366543E-04  0.2236068E+02  0.7957747E-01  0.1516063E+00
      -11   -1    0    0    0    0  0.00000000000E+00  0.00000000000E+00  0.50000000000E+03  0.50000000000E+03  0.00000000000E+00 0.  1.
       11   -1    0    0    0    0 -0.00000000000E+00 -0.00000000000E+00 -0.50000000000E+03  0.50000000000E+03  0.00000000000E+00 0. -1.
  1000024    1    1    2    0    0 -0.16749269162E+03  0.17405914714E+03  0.39888043799E+03  0.50000000000E+03  0.18039957800E+03 0.  1.
 -1000024    1    1    2    0    0  0.16749269162E+03 -0.17405914714E+03 -0.39888043799E+03  0.50000000000E+03  0.18039957800E+03 0. -1.
</event>
<event>
 4   0  0.1092222E-03  0.2236068E+02  0.7957747E-01  0.1516063E+00
      -11   -1    0    0    0    0  0.00000000000E+00  0.00000000000E+00  0.50000000000E+03  0.50000000000E+03  0.00000000000E+00 0.  1.
       11   -1    0    0    0    0 -0.00000000000E+00 -0.00000000000E+00 -0.50000000000E+03  0.50000000000E+03  0.00000000000E+00 0. -1.
  1000024    1    1    2    0    0 -0.10893111689E+03 -0.45121983792E+03 -0.44616834270E+02  0.50000000000E+03  0.18039957800E+03 0.  1.
 -1000024    1    1    2    0    0  0.10893111689E+03  0.45121983792E+03  0.44616834270E+02  0.50000000000E+03  0.18039957800E+03 0. -1.
</event>
<event>
 4   0  0.7366543E-04  0.2236068E+02  0.7957747E-01  0.1516063E+00
      -11   -1    0    0    0    0  0.00000000000E+00  0.00000000000E+00  0.50000000000E+03  0.50000000000E+03  0.00000000000E+00 0.  1.
       11   -1    0    0    0    0 -0.00000000000E+00 -0.00000000000E+00 -0.50000000000E+03  0.50000000000E+03  0.00000000000E+00 0. -1.
  1000024    1    1    2    0    0  0.71753641065E+02  0.11304741297E+03  0.44668522437E+03  0.50000000000E+03  0.18039957800E+03 0. -1.
 -1000024    1    1    2    0    0 -0.71753641065E+02 -0.11304741297E+03 -0.44668522437E+03  0.50000000000E+03  0.18039957800E+03 0. -1.
</event>
<event>
 4   0  0.1092222E-03  0.2236068E+02  0.7957747E-01  0.1516063E+00
      -11   -1    0    0    0    0  0.00000000000E+00  0.00000000000E+00  0.50000000000E+03  0.50000000000E+03  0.00000000000E+00 0.  1.
       11   -1    0    0    0    0 -0.00000000000E+00 -0.00000000000E+00 -0.50000000000E+03  0.50000000000E+03  0.00000000000E+00 0. -1.
  1000024    1    1    2    0    0  0.46507170517E+03  0.33655879593E+02 -0.56198819394E+01  0.50000000000E+03  0.18039957800E+03 0. -1.
 -1000024    1    1    2    0    0 -0.46507170517E+03 -0.33655879593E+02  0.56198819394E+01  0.50000000000E+03  0.18039957800E+03 0.  1.
</event>
<event>
 4   0  0.6712789E-04  0.2236068E+02  0.7957747E-01  0.1516063E+00
      -11   -1    0    0    0    0  0.00000000000E+00  0.00000000000E+00  0.50000000000E+03  0.50000000000E+03  0.00000000000E+00 0.  1.
       11   -1    0    0    0    0 -0.00000000000E+00 -0.00000000000E+00 -0.50000000000E+03  0.50000000000E+03  0.00000000000E+00 0. -1.
  1000024    1    1    2    0    0  0.33814914079E+03 -0.24538711570E+03  0.20711425419E+03  0.50000000000E+03  0.18039957800E+03 0.  1.
 -1000024    1    1    2    0    0 -0.33814914079E+03  0.24538711570E+03 -0.20711425419E+03  0.50000000000E+03  0.18039957800E+03 0. -1.
</event>
<event>
 4   0  0.1092222E-03  0.2236068E+02  0.7957747E-01  0.1516063E+00
      -11   -1    0    0    0    0  0.00000000000E+00  0.00000000000E+00  0.50000000000E+03  0.50000000000E+03  0.00000000000E+00 0.  1.
       11   -1    0    0    0    0 -0.00000000000E+00 -0.00000000000E+00 -0.50000000000E+03  0.50000000000E+03  0.00000000000E+00 0. -1.
  1000024    1    1    2    0    0  0.37621043628E+03 -0.20030583222E+03  0.18920695936E+03  0.50000000000E+03  0.18039957800E+03 0. -1.
 -1000024    1    1    2    0    0 -0.37621043628E+03  0.20030583222E+03 -0.18920695936E+03  0.50000000000E+03  0.18039957800E+03 0.  1.
</event>
<event>
 4   0  0.1092222E-03  0.2236068E+02  0.7957747E-01  0.1516063E+00
      -11   -1    0    0    0    0  0.00000000000E+00  0.00000000000E+00  0.50000000000E+03  0.50000000000E+03  0.00000000000E+00 0.  1.
       11   -1    0    0    0    0 -0.00000000000E+00 -0.00000000000E+00 -0.50000000000E+03  0.50000000000E+03  0.00000000000E+00 0. -1.
  1000024    1    1    2    0    0  0.25140508957E+03  0.18825653487E+03  0.34468964342E+03  0.50000000000E+03  0.18039957800E+03 0. -1.
 -1000024    1    1    2    0    0 -0.25140508957E+03 -0.18825653487E+03 -0.34468964342E+03  0.50000000000E+03  0.18039957800E+03 0.  1.
</event>
<event>
 4   0  0.6712789E-04  0.2236068E+02  0.7957747E-01  0.1516063E+00
      -11   -1    0    0    0    0  0.00000000000E+00  0.00000000000E+00  0.50000000000E+03  0.50000000000E+03  0.00000000000E+00 0.  1.
       11   -1    0    0    0    0 -0.00000000000E+00 -0.00000000000E+00 -0.50000000000E+03  0.50000000000E+03  0.00000000000E+00 0. -1.
  1000024    1    1    2    0    0 -0.46520512404E+02  0.46347515674E+03  0.21968460770E+02  0.50000000000E+03  0.18039957800E+03 0.  1.
 -1000024    1    1    2    0    0  0.46520512404E+02 -0.46347515674E+03 -0.21968460770E+02  0.50000000000E+03  0.18039957800E+03 0. -1.
</event>
<event>
 4   0  0.7366543E-04  0.2236068E+02  0.7957747E-01  0.1516063E+00
      -11   -1    0    0    0    0  0.00000000000E+00  0.00000000000E+00  0.50000000000E+03  0.50000000000E+03  0.00000000000E+00 0.  1.
       11   -1    0    0    0    0 -0.00000000000E+00 -0.00000000000E+00 -0.50000000000E+03  0.50000000000E+03  0.00000000000E+00 0. -1.
  1000024    1    1    2    0    0  0.26460940425E+03  0.30882719898E+03  0.22817453103E+03  0.50000000000E+03  0.18039957800E+03 0. -1.
 -1000024    1    1    2    0    0 -0.26460940425E+03 -0.30882719898E+03 -0.22817453103E+03  0.50000000000E+03  0.18039957800E+03 0.  1.
</event>
<event>
 4   0  0.1092222E-03  0.2236068E+02  0.7957747E-01  0.1516063E+00
      -11   -1    0    0    0    0  0.00000000000E+00  0.00000000000E+00  0.50000000000E+03  0.50000000000E+03  0.00000000000E+00 0.  1.
       11   -1    0    0    0    0 -0.00000000000E+00 -0.00000000000E+00 -0.50000000000E+03  0.50000000000E+03  0.00000000000E+00 0. -1.
  1000024    1    1    2    0    0  0.86708291300E+01 -0.46361945854E+03 -0.49374149553E+02  0.50000000000E+03  0.18039957800E+03 0.  1.
 -1000024    1    1    2    0    0 -0.86708291300E+01  0.46361945854E+03  0.49374149553E+02  0.50000000000E+03  0.18039957800E+03 0. -1.
</event>
<event>
 4   0  0.1092222E-03  0.2236068E+02  0.7957747E-01  0.1516063E+00
      -11   -1    0    0    0    0  0.00000000000E+00  0.00000000000E+00  0.50000000000E+03  0.50000000000E+03  0.00000000000E+00 0.  1.
       11   -1    0    0    0    0 -0.00000000000E+00 -0.00000000000E+00 -0.50000000000E+03  0.50000000000E+03  0.00000000000E+00 0. -1.
  1000024    1    1    2    0    0 -0.22664593661E+02  0.41874414634E+03  0.20395011242E+03  0.50000000000E+03  0.18039957800E+03 0. -1.
 -1000024    1    1    2    0    0  0.22664593661E+02 -0.41874414634E+03 -0.20395011242E+03  0.50000000000E+03  0.18039957800E+03 0.  1.
</event>
<event>
 4   0  0.1092222E-03  0.2236068E+02  0.7957747E-01  0.1516063E+00
      -11   -1    0    0    0    0  0.00000000000E+00  0.00000000000E+00  0.50000000000E+03  0.50000000000E+03  0.00000000000E+00 0.  1.
       11   -1    0    0    0    0 -0.00000000000E+00 -0.00000000000E+00 -0.50000000000E+03  0.50000000000E+03  0.00000000000E+00 0. -1.
  1000024    1    1    2    0    0  0.45070714223E+02  0.28477039784E+03  0.36651117785E+03  0.50000000000E+03  0.18039957800E+03 0.  1.
 -1000024    1    1    2    0    0 -0.45070714223E+02 -0.28477039784E+03 -0.36651117785E+03  0.50000000000E+03  0.18039957800E+03 0. -1.
</event>
<event>
 4   0  0.7366543E-04  0.2236068E+02  0.7957747E-01  0.1516063E+00
      -11   -1    0    0    0    0  0.00000000000E+00  0.00000000000E+00  0.50000000000E+03  0.50000000000E+03  0.00000000000E+00 0.  1.
       11   -1    0    0    0    0 -0.00000000000E+00 -0.00000000000E+00 -0.50000000000E+03  0.50000000000E+03  0.00000000000E+00 0. -1.
  1000024    1    1    2    0    0 -0.13264066687E+03 -0.12048612548E+03  0.43051775726E+03  0.50000000000E+03  0.18039957800E+03 0. -1.
 -1000024    1    1    2    0    0  0.13264066687E+03  0.12048612548E+03 -0.43051775726E+03  0.50000000000E+03  0.18039957800E+03 0. -1.
</event>
<event>
 4   0  0.6712789E-04  0.2236068E+02  0.7957747E-01  0.1516063E+00
      -11   -1    0    0    0    0  0.00000000000E+00  0.00000000000E+00  0.50000000000E+03  0.50000000000E+03  0.00000000000E+00 0.  1.
       11   -1    0    0    0    0 -0.00000000000E+00 -0.00000000000E+00 -0.50000000000E+03  0.50000000000E+03  0.00000000000E+00 0. -1.
  1000024    1    1    2    0    0  0.41864455287E+03  0.20286865191E+03  0.32203116016E+02  0.50000000000E+03  0.18039957800E+03 0. -1.
 -1000024    1    1    2    0    0 -0.41864455287E+03 -0.20286865191E+03 -0.32203116016E+02  0.50000000000E+03  0.18039957800E+03 0.  1.
</event>
<event>
 4   0  0.1092222E-03  0.2236068E+02  0.7957747E-01  0.1516063E+00
      -11   -1    0    0    0    0  0.00000000000E+00  0.00000000000E+00  0.50000000000E+03  0.50000000000E+03  0.00000000000E+00 0.  1.
       11   -1    0    0    0    0 -0.00000000000E+00 -0.00000000000E+00 -0.50000000000E+03  0.50000000000E+03  0.00000000000E+00 0. -1.
  1000024    1    1    2    0    0 -0.29032839480E+03  0.19375634232E+03  0.30923113563E+03  0.50000000000E+03  0.18039957800E+03 0.  1.
 -1000024    1    1    2    0    0  0.29032839480E+03 -0.19375634232E+03 -0.30923113563E+03  0.50000000000E+03  0.18039957800E+03 0.  1.
</event>
<event>
 4   0  0.6712789E-04  0.2236068E+02  0.7957747E-01  0.1516063E+00
      -11   -1    0    0    0    0  0.00000000000E+00  0.00000000000E+00  0.50000000000E+03  0.50000000000E+03  0.00000000000E+00 0.  1.
       11   -1    0    0    0    0 -0.00000000000E+00 -0.00000000000E+00 -0.50000000000E+03  0.50000000000E+03  0.00000000000E+00 0. -1.
  1000024    1    1    2    0    0 -0.31683457784E+03 -0.43511900471E+02  0.33937966507E+03  0.50000000000E+03  0.18039957800E+03 0.  1.
 -1000024    1    1    2    0    0  0.31683457784E+03  0.43511900471E+02 -0.33937966507E+03  0.50000000000E+03  0.18039957800E+03 0. -1.
</event>
<event>
 4   0  0.1092222E-03  0.2236068E+02  0.7957747E-01  0.1516063E+00
      -11   -1    0    0    0    0  0.00000000000E+00  0.00000000000E+00  0.50000000000E+03  0.50000000000E+03  0.00000000000E+00 0.  1.
       11   -1    0    0    0    0 -0.00000000000E+00 -0.00000000000E+00 -0.50000000000E+03  0.50000000000E+03  0.00000000000E+00 0. -1.
  1000024    1    1    2    0    0  0.24090216820E+03  0.20802115919E+03  0.34080688805E+03  0.50000000000E+03  0.18039957800E+03 0. -1.
 -1000024    1    1    2    0    0 -0.24090216820E+03 -0.20802115919E+03 -0.34080688805E+03  0.50000000000E+03  0.18039957800E+03 0.  1.
</event>
<event>
 4   0  0.1092222E-03  0.2236068E+02  0.7957747E-01  0.1516063E+00
      -11   -1    0    0    0    0  0.00000000000E+00  0.00000000000E+00  0.50000000000E+03  0.50000000000E+03  0.00000000000E+00 0.  1.
       11   -1    0    0    0    0 -0.00000000000E+00 -0.00000000000E+00 -0.50000000000E+03  0.50000000000E+03  0.00000000000E+00 0. -1.
  1000024    1    1    2    0    0  0.35997613766E+03 -0.22541989291E+03  0.19250725817E+03  0.50000000000E+03  0.18039957800E+03 0. -1.
 -1000024    1    1    2    0    0 -0.35997613766E+03  0.22541989291E+03 -0.19250725817E+03  0.50000000000E+03  0.18039957800E+03 0.  1.
</event>
<event>
 4   0  0.1092222E-03  0.2236068E+02  0.7957747E-01  0.1516063E+00
      -11   -1    0    0    0    0  0.00000000000E+00  0.00000000000E+00  0.50000000000E+03  0.50000000000E+03  0.00000000000E+00 0.  1.
       11   -1    0    0    0    0 -0.00000000000E+00 -0.00000000000E+00 -0.50000000000E+03  0.50000000000E+03  0.00000000000E+00 0. -1.
  1000024    1    1    2    0    0 -0.39815594504E+03 -0.19382954536E+03  0.14614356993E+03  0.50000000000E+03  0.18039957800E+03 0. -1.
 -1000024    1    1    2    0    0  0.39815594504E+03  0.19382954536E+03 -0.14614356993E+03  0.50000000000E+03  0.18039957800E+03 0.  1.
</event>
<event>
 4   0  0.1092222E-03  0.2236068E+02  0.7957747E-01  0.1516063E+00
      -11   -1    0    0    0    0  0.00000000000E+00  0.00000000000E+00  0.50000000000E+03  0.50000000000E+03  0.00000000000E+00 0.  1.
       11   -1    0    0    0    0 -0.00000000000E+00 -0.00000000000E+00 -0.50000000000E+03  0.50000000000E+03  0.00000000000E+00 0. -1.
  1000024    1    1    2    0    0 -0.37049352155E+03  0.26965589925E+03 -0.86465245892E+02  0.50000000000E+03  0.18039957800E+03 0.  1.
 -1000024    1    1    2    0    0  0.37049352155E+03 -0.26965589925E+03  0.86465245892E+02  0.50000000000E+03  0.18039957800E+03 0. -1.
</event>
<event>
 4   0  0.6712789E-04  0.2236068E+02  0.7957747E-01  0.1516063E+00
      -11   -1    0    0    0    0  0.00000000000E+00  0.00000000000E+00  0.50000000000E+03  0.50000000000E+03  0.00000000000E+00 0.  1.
       11   -1    0    0    0    0 -0.00000000000E+00 -0.00000000000E+00 -0.50000000000E+03  0.50000000000E+03  0.00000000000E+00 0. -1.
  1000024    1    1    2    0    0  0.10501663034E+03 -0.44707400875E+03 -0.80946465708E+02  0.50000000000E+03  0.18039957800E+03 0. -1.
 -1000024    1    1    2    0    0 -0.10501663034E+03  0.44707400875E+03  0.80946465708E+02  0.50000000000E+03  0.18039957800E+03 0.  1.
</event>
<event>
 4   0  0.1092222E-03  0.2236068E+02  0.7957747E-01  0.1516063E+00
      -11   -1    0    0    0    0  0.00000000000E+00  0.00000000000E+00  0.50000000000E+03  0.50000000000E+03  0.00000000000E+00 0.  1.
       11   -1    0    0    0    0 -0.00000000000E+00 -0.00000000000E+00 -0.50000000000E+03  0.50000000000E+03  0.00000000000E+00 0. -1.
  1000024    1    1    2    0    0 -0.26026744140E+03  0.37298706263E+03  0.10294417086E+03  0.50000000000E+03  0.18039957800E+03 0.  1.
 -1000024    1    1    2    0    0  0.26026744140E+03 -0.37298706263E+03 -0.10294417086E+03  0.50000000000E+03  0.18039957800E+03 0. -1.
</event>
<event>
 4   0  0.6712789E-04  0.2236068E+02  0.7957747E-01  0.1516063E+00
      -11   -1    0    0    0    0  0.00000000000E+00  0.00000000000E+00  0.50000000000E+03  0.50000000000E+03  0.00000000000E+00 0.  1.
       11   -1    0    0    0    0 -0.00000000000E+00 -0.00000000000E+00 -0.50000000000E+03  0.50000000000E+03  0.00000000000E+00 0. -1.
  1000024    1    1    2    0    0 -0.26906459781E+03  0.10339169203E+03  0.36656567281E+03  0.50000000000E+03  0.18039957800E+03 0.  1.
 -1000024    1    1    2    0    0  0.26906459781E+03 -0.10339169203E+03 -0.36656567281E+03  0.50000000000E+03  0.18039957800E+03 0. -1.
</event>
<event>
 4   0  0.6712789E-04  0.2236068E+02  0.7957747E-01  0.1516063E+00
      -11   -1    0    0    0    0  0.00000000000E+00  0.00000000000E+00  0.50000000000E+03  0.50000000000E+03  0.00000000000E+00 0.  1.
       11   -1    0    0    0    0 -0.00000000000E+00 -0.00000000000E+00 -0.50000000000E+03  0.50000000000E+03  0.00000000000E+00 0. -1.
  1000024    1    1    2    0    0 -0.14504199509E+03 -0.33344311759E+02  0.44193548035E+03  0.50000000000E+03  0.18039957800E+03 0.  1.
 -1000024    1    1    2    0    0  0.14504199509E+03  0.33344311759E+02 -0.44193548035E+03  0.50000000000E+03  0.18039957800E+03 0. -1.
</event>
<event>
 4   0  0.1092222E-03  0.2236068E+02  0.7957747E-01  0.1516063E+00
      -11   -1    0    0    0    0  0.00000000000E+00  0.00000000000E+00  0.50000000000E+03  0.50000000000E+03  0.00000000000E+00 0.  1.
       11   -1    0    0    0    0 -0.00000000000E+00 -0.00000000000E+00 -0.50000000000E+03  0.50000000000E+03  0.00000000000E+00 0. -1.
  1000024    1    1    2    0    0 -0.28561524849E+03  0.21852205027E+03  0.29686366506E+03  0.50000000000E+03  0.18039957800E+03 0.  1.
 -1000024    1    1    2    0    0  0.28561524849E+03 -0.21852205027E+03 -0.29686366506E+03  0.50000000000E+03  0.18039957800E+03 0. -1.
</event>
<event>
 4   0  0.6712789E-04  0.2236068E+02  0.7957747E-01  0.1516063E+00
      -11   -1    0    0    0    0  0.00000000000E+00  0.00000000000E+00  0.50000000000E+03  0.50000000000E+03  0.00000000000E+00 0.  1.
       11   -1    0    0    0    0 -0.00000000000E+00 -0.00000000000E+00 -0.50000000000E+03  0.50000000000E+03  0.00000000000E+00 0. -1.
  1000024    1    1    2    0    0 -0.18499260805E+03  0.17030586548E+03  0.39272081611E+03  0.50000000000E+03  0.18039957800E+03 0.  1.
 -1000024    1    1    2    0    0  0.18499260805E+03 -0.17030586548E+03 -0.39272081611E+03  0.50000000000E+03  0.18039957800E+03 0. -1.
</event>
<event>
 4   0  0.1092222E-03  0.2236068E+02  0.7957747E-01  0.1516063E+00
      -11   -1    0    0    0    0  0.00000000000E+00  0.00000000000E+00  0.50000000000E+03  0.50000000000E+03  0.00000000000E+00 0.  1.
       11   -1    0    0    0    0 -0.00000000000E+00 -0.00000000000E+00 -0.50000000000E+03  0.50000000000E+03  0.00000000000E+00 0. -1.
  1000024    1    1    2    0    0 -0.18627930242E+03  0.42679484407E+03 -0.24539250621E+02  0.50000000000E+03  0.18039957800E+03 0. -1.
 -1000024    1    1    2    0    0  0.18627930242E+03 -0.42679484407E+03  0.24539250621E+02  0.50000000000E+03  0.18039957800E+03 0.  1.
</event>
<event>
 4   0  0.6712789E-04  0.2236068E+02  0.7957747E-01  0.1516063E+00
      -11   -1    0    0    0    0  0.00000000000E+00  0.00000000000E+00  0.50000000000E+03  0.50000000000E+03  0.00000000000E+00 0.  1.
       11   -1    0    0    0    0 -0.00000000000E+00 -0.00000000000E+00 -0.50000000000E+03  0.50000000000E+03  0.00000000000E+00 0. -1.
  1000024    1    1    2    0    0  0.42297205683E+03  0.88851538846E+02  0.17508865025E+03  0.50000000000E+03  0.18039957800E+03 0.  1.
 -1000024    1    1    2    0    0 -0.42297205683E+03 -0.88851538846E+02 -0.17508865025E+03  0.50000000000E+03  0.18039957800E+03 0. -1.
</event>
<event>
 4   0  0.7366543E-04  0.2236068E+02  0.7957747E-01  0.1516063E+00
      -11   -1    0    0    0    0  0.00000000000E+00  0.00000000000E+00  0.50000000000E+03  0.50000000000E+03  0.00000000000E+00 0.  1.
       11   -1    0    0    0    0 -0.00000000000E+00 -0.00000000000E+00 -0.50000000000E+03  0.50000000000E+03  0.00000000000E+00 0. -1.
  1000024    1    1    2    0    0  0.39833659466E+03  0.74077206117E+02 -0.23086038453E+03  0.50000000000E+03  0.18039957800E+03 0.  1.
 -1000024    1    1    2    0    0 -0.39833659466E+03 -0.74077206117E+02  0.23086038453E+03  0.50000000000E+03  0.18039957800E+03 0.  1.
</event>
<event>
 4   0  0.1092222E-03  0.2236068E+02  0.7957747E-01  0.1516063E+00
      -11   -1    0    0    0    0  0.00000000000E+00  0.00000000000E+00  0.50000000000E+03  0.50000000000E+03  0.00000000000E+00 0.  1.
       11   -1    0    0    0    0 -0.00000000000E+00 -0.00000000000E+00 -0.50000000000E+03  0.50000000000E+03  0.00000000000E+00 0. -1.
  1000024    1    1    2    0    0 -0.18070237320E+03 -0.42975059489E+03 -0.10819924617E+02  0.50000000000E+03  0.18039957800E+03 0. -1.
 -1000024    1    1    2    0    0  0.18070237320E+03  0.42975059489E+03  0.10819924617E+02  0.50000000000E+03  0.18039957800E+03 0.  1.
</event>
<event>
 4   0  0.6712789E-04  0.2236068E+02  0.7957747E-01  0.1516063E+00
      -11   -1    0    0    0    0  0.00000000000E+00  0.00000000000E+00  0.50000000000E+03  0.50000000000E+03  0.00000000000E+00 0.  1.
       11   -1    0    0    0    0 -0.00000000000E+00 -0.00000000000E+00 -0.50000000000E+03  0.50000000000E+03  0.00000000000E+00 0. -1.
  1000024    1    1    2    0    0  0.17784746031E+03  0.16416204736E+03  0.39859389776E+03  0.50000000000E+03  0.18039957800E+03 0. -1.
 -1000024    1    1    2    0    0 -0.17784746031E+03 -0.16416204736E+03 -0.39859389776E+03  0.50000000000E+03  0.18039957800E+03 0. -1.
</event>
<event>
 4   0  0.1092222E-03  0.2236068E+02  0.7957747E-01  0.1516063E+00
      -11   -1    0    0    0    0  0.00000000000E+00  0.00000000000E+00  0.50000000000E+03  0.50000000000E+03  0.00000000000E+00 0.  1.
       11   -1    0    0    0    0 -0.00000000000E+00 -0.00000000000E+00 -0.50000000000E+03  0.50000000000E+03  0.00000000000E+00 0. -1.
  1000024    1    1    2    0    0  0.23525111583E+03 -0.38959469569E+03 -0.10163108703E+03  0.50000000000E+03  0.18039957800E+03 0. -1.
 -1000024    1    1    2    0    0 -0.23525111583E+03  0.38959469569E+03  0.10163108703E+03  0.50000000000E+03  0.18039957800E+03 0.  1.
</event>
<event>
 4   0  0.1092222E-03  0.2236068E+02  0.7957747E-01  0.1516063E+00
      -11   -1    0    0    0    0  0.00000000000E+00  0.00000000000E+00  0.50000000000E+03  0.50000000000E+03  0.00000000000E+00 0.  1.
       11   -1    0    0    0    0 -0.00000000000E+00 -0.00000000000E+00 -0.50000000000E+03  0.50000000000E+03  0.00000000000E+00 0. -1.
  1000024    1    1    2    0    0  0.23811360841E+03 -0.35126510887E+03  0.19331509263E+03  0.50000000000E+03  0.18039957800E+03 0.  1.
 -1000024    1    1    2    0    0 -0.23811360841E+03  0.35126510887E+03 -0.19331509263E+03  0.50000000000E+03  0.18039957800E+03 0. -1.
</event>
<event>
 4   0  0.7366543E-04  0.2236068E+02  0.7957747E-01  0.1516063E+00
      -11   -1    0    0    0    0  0.00000000000E+00  0.00000000000E+00  0.50000000000E+03  0.50000000000E+03  0.00000000000E+00 0.  1.
       11   -1    0    0    0    0 -0.00000000000E+00 -0.00000000000E+00 -0.50000000000E+03  0.50000000000E+03  0.00000000000E+00 0. -1.
  1000024    1    1    2    0    0  0.17363216233E+03  0.35190812788E+03  0.25192962111E+03  0.50000000000E+03  0.18039957800E+03 0.  1.
 -1000024    1    1    2    0    0 -0.17363216233E+03 -0.35190812788E+03 -0.25192962111E+03  0.50000000000E+03  0.18039957800E+03 0. -1.
</event>
<event>
 4   0  0.6712789E-04  0.2236068E+02  0.7957747E-01  0.1516063E+00
      -11   -1    0    0    0    0  0.00000000000E+00  0.00000000000E+00  0.50000000000E+03  0.50000000000E+03  0.00000000000E+00 0.  1.
       11   -1    0    0    0    0 -0.00000000000E+00 -0.00000000000E+00 -0.50000000000E+03  0.50000000000E+03  0.00000000000E+00 0. -1.
  1000024    1    1    2    0    0 -0.43888787412E+03  0.15156692400E+03  0.43138077768E+02  0.50000000000E+03  0.18039957800E+03 0. -1.
 -1000024    1    1    2    0    0  0.43888787412E+03 -0.15156692400E+03 -0.43138077768E+02  0.50000000000E+03  0.18039957800E+03 0.  1.
</event>
<event>
 4   0  0.1092222E-03  0.2236068E+02  0.7957747E-01  0.1516063E+00
      -11   -1    0    0    0    0  0.00000000000E+00  0.00000000000E+00  0.50000000000E+03  0.50000000000E+03  0.00000000000E+00 0.  1.
       11   -1    0    0    0    0 -0.00000000000E+00 -0.00000000000E+00 -0.50000000000E+03  0.50000000000E+03  0.00000000000E+00 0. -1.
  1000024    1    1    2    0    0 -0.22872664986E+03 -0.36749220930E+03  0.17346350625E+03  0.50000000000E+03  0.18039957800E+03 0.  1.
 -1000024    1    1    2    0    0  0.22872664986E+03  0.36749220930E+03 -0.17346350625E+03  0.50000000000E+03  0.18039957800E+03 0. -1.
</event>
<event>
 4   0  0.6712789E-04  0.2236068E+02  0.7957747E-01  0.1516063E+00
      -11   -1    0    0    0    0  0.00000000000E+00  0.00000000000E+00  0.50000000000E+03  0.50000000000E+03  0.00000000000E+00 0.  1.
       11   -1    0    0    0    0 -0.00000000000E+00 -0.00000000000E+00 -0.50000000000E+03  0.50000000000E+03  0.00000000000E+00 0. -1.
  1000024    1    1    2    0    0  0.45486549596E+03  0.24023932837E+02  0.99881046713E+02  0.50000000000E+03  0.18039957800E+03 0. -1.
 -1000024    1    1    2    0    0 -0.45486549596E+03 -0.24023932837E+02 -0.99881046713E+02  0.50000000000E+03  0.18039957800E+03 0.  1.
</event>
<event>
 4   0  0.1092222E-03  0.2236068E+02  0.7957747E-01  0.1516063E+00
      -11   -1    0    0    0    0  0.00000000000E+00  0.00000000000E+00  0.50000000000E+03  0.50000000000E+03  0.00000000000E+00 0.  1.
       11   -1    0    0    0    0 -0.00000000000E+00 -0.00000000000E+00 -0.50000000000E+03  0.50000000000E+03  0.00000000000E+00 0. -1.
  1000024    1    1    2    0    0 -0.92958698194E+02  0.10496293330E+03  0.44474425833E+03  0.50000000000E+03  0.18039957800E+03 0.  1.
 -1000024    1    1    2    0    0  0.92958698194E+02 -0.10496293330E+03 -0.44474425833E+03  0.50000000000E+03  0.18039957800E+03 0. -1.
</event>
<event>
 4   0  0.6712789E-04  0.2236068E+02  0.7957747E-01  0.1516063E+00
      -11   -1    0    0    0    0  0.00000000000E+00  0.00000000000E+00  0.50000000000E+03  0.50000000000E+03  0.00000000000E+00 0.  1.
       11   -1    0    0    0    0 -0.00000000000E+00 -0.00000000000E+00 -0.50000000000E+03  0.50000000000E+03  0.00000000000E+00 0. -1.
  1000024    1    1    2    0    0  0.14868048744E+02 -0.46608065408E+03  0.19383706361E+01  0.50000000000E+03  0.18039957800E+03 0. -1.
 -1000024    1    1    2    0    0 -0.14868048744E+02  0.46608065408E+03 -0.19383706361E+01  0.50000000000E+03  0.18039957800E+03 0.  1.
</event>
<event>
 4   0  0.7366543E-04  0.2236068E+02  0.7957747E-01  0.1516063E+00
      -11   -1    0    0    0    0  0.00000000000E+00  0.00000000000E+00  0.50000000000E+03  0.50000000000E+03  0.00000000000E+00 0.  1.
       11   -1    0    0    0    0 -0.00000000000E+00 -0.00000000000E+00 -0.50000000000E+03  0.50000000000E+03  0.00000000000E+00 0. -1.
  1000024    1    1    2    0    0 -0.92349751810E+02 -0.39133117770E+03  0.23619361753E+03  0.50000000000E+03  0.18039957800E+03 0.  1.
 -1000024    1    1    2    0    0  0.92349751810E+02  0.39133117770E+03 -0.23619361753E+03  0.50000000000E+03  0.18039957800E+03 0. -1.
</event>
<event>
 4   0  0.1092222E-03  0.2236068E+02  0.7957747E-01  0.1516063E+00
      -11   -1    0    0    0    0  0.00000000000E+00  0.00000000000E+00  0.50000000000E+03  0.50000000000E+03  0.00000000000E+00 0.  1.
       11   -1    0    0    0    0 -0.00000000000E+00 -0.00000000000E+00 -0.50000000000E+03  0.50000000000E+03  0.00000000000E+00 0. -1.
  1000024    1    1    2    0    0  0.96772737228E+02  0.43889779572E+03  0.12433726110E+03  0.50000000000E+03  0.18039957800E+03 0.  1.
 -1000024    1    1    2    0    0 -0.96772737228E+02 -0.43889779572E+03 -0.12433726110E+03  0.50000000000E+03  0.18039957800E+03 0. -1.
</event>
<event>
 4   0  0.1092222E-03  0.2236068E+02  0.7957747E-01  0.1516063E+00
      -11   -1    0    0    0    0  0.00000000000E+00  0.00000000000E+00  0.50000000000E+03  0.50000000000E+03  0.00000000000E+00 0.  1.
       11   -1    0    0    0    0 -0.00000000000E+00 -0.00000000000E+00 -0.50000000000E+03  0.50000000000E+03  0.00000000000E+00 0. -1.
  1000024    1    1    2    0    0 -0.35388320232E+03  0.55760381167E+02  0.29851876199E+03  0.50000000000E+03  0.18039957800E+03 0.  1.
 -1000024    1    1    2    0    0  0.35388320232E+03 -0.55760381167E+02 -0.29851876199E+03  0.50000000000E+03  0.18039957800E+03 0. -1.
</event>
<event>
 4   0  0.6712789E-04  0.2236068E+02  0.7957747E-01  0.1516063E+00
      -11   -1    0    0    0    0  0.00000000000E+00  0.00000000000E+00  0.50000000000E+03  0.50000000000E+03  0.00000000000E+00 0.  1.
       11   -1    0    0    0    0 -0.00000000000E+00 -0.00000000000E+00 -0.50000000000E+03  0.50000000000E+03  0.00000000000E+00 0. -1.
  1000024    1    1    2    0    0 -0.14064827270E+03  0.29151962025E+03  0.33569385853E+03  0.50000000000E+03  0.18039957800E+03 0. -1.
 -1000024    1    1    2    0    0  0.14064827270E+03 -0.29151962025E+03 -0.33569385853E+03  0.50000000000E+03  0.18039957800E+03 0.  1.
</event>
<event>
 4   0  0.7366543E-04  0.2236068E+02  0.7957747E-01  0.1516063E+00
      -11   -1    0    0    0    0  0.00000000000E+00  0.00000000000E+00  0.50000000000E+03  0.50000000000E+03  0.00000000000E+00 0.  1.
       11   -1    0    0    0    0 -0.00000000000E+00 -0.00000000000E+00 -0.50000000000E+03  0.50000000000E+03  0.00000000000E+00 0. -1.
  1000024    1    1    2    0    0 -0.35869314078E+03  0.85447906127E+01  0.29786273612E+03  0.50000000000E+03  0.18039957800E+03 0.  1.
 -1000024    1    1    2    0    0  0.35869314078E+03 -0.85447906127E+01 -0.29786273612E+03  0.50000000000E+03  0.18039957800E+03 0. -1.
</event>
<event>
 4   0  0.6712789E-04  0.2236068E+02  0.7957747E-01  0.1516063E+00
      -11   -1    0    0    0    0  0.00000000000E+00  0.00000000000E+00  0.50000000000E+03  0.50000000000E+03  0.00000000000E+00 0.  1.
       11   -1    0    0    0    0 -0.00000000000E+00 -0.00000000000E+00 -0.50000000000E+03  0.50000000000E+03  0.00000000000E+00 0. -1.
  1000024    1    1    2    0    0 -0.28695047179E+02 -0.29211531949E+03  0.36235511124E+03  0.50000000000E+03  0.18039957800E+03 0.  1.
 -1000024    1    1    2    0    0  0.28695047179E+02  0.29211531949E+03 -0.36235511124E+03  0.50000000000E+03  0.18039957800E+03 0. -1.
</event>
<event>
 4   0  0.1092222E-03  0.2236068E+02  0.7957747E-01  0.1516063E+00
      -11   -1    0    0    0    0  0.00000000000E+00  0.00000000000E+00  0.50000000000E+03  0.50000000000E+03  0.00000000000E+00 0.  1.
       11   -1    0    0    0    0 -0.00000000000E+00 -0.00000000000E+00 -0.50000000000E+03  0.50000000000E+03  0.00000000000E+00 0. -1.
  1000024    1    1    2    0    0 -0.46755800590E+02 -0.92675784866E+02  0.45462191574E+03  0.50000000000E+03  0.18039957800E+03 0.  1.
 -1000024    1    1    2    0    0  0.46755800590E+02  0.92675784866E+02 -0.45462191574E+03  0.50000000000E+03  0.18039957800E+03 0. -1.
</event>
<event>
 4   0  0.1092222E-03  0.2236068E+02  0.7957747E-01  0.1516063E+00
      -11   -1    0    0    0    0  0.00000000000E+00  0.00000000000E+00  0.50000000000E+03  0.50000000000E+03  0.00000000000E+00 0.  1.
       11   -1    0    0    0    0 -0.00000000000E+00 -0.00000000000E+00 -0.50000000000E+03  0.50000000000E+03  0.00000000000E+00 0. -1.
  1000024    1    1    2    0    0 -0.19920622498E+03 -0.13579743988E+03  0.39916403584E+03  0.50000000000E+03  0.18039957800E+03 0. -1.
 -1000024    1    1    2    0    0  0.19920622498E+03  0.13579743988E+03 -0.39916403584E+03  0.50000000000E+03  0.18039957800E+03 0.  1.
</event>
<event>
 4   0  0.7366543E-04  0.2236068E+02  0.7957747E-01  0.1516063E+00
      -11   -1    0    0    0    0  0.00000000000E+00  0.00000000000E+00  0.50000000000E+03  0.50000000000E+03  0.00000000000E+00 0.  1.
       11   -1    0    0    0    0 -0.00000000000E+00 -0.00000000000E+00 -0.50000000000E+03  0.50000000000E+03  0.00000000000E+00 0. -1.
  1000024    1    1    2    0    0  0.55201731927E+02  0.41973684339E+03  0.19552427816E+03  0.50000000000E+03  0.18039957800E+03 0. -1.
 -1000024    1    1    2    0    0 -0.55201731927E+02 -0.41973684339E+03 -0.19552427816E+03  0.50000000000E+03  0.18039957800E+03 0.  1.
</event>
<event>
 4   0  0.1092222E-03  0.2236068E+02  0.7957747E-01  0.1516063E+00
      -11   -1    0    0    0    0  0.00000000000E+00  0.00000000000E+00  0.50000000000E+03  0.50000000000E+03  0.00000000000E+00 0.  1.
       11   -1    0    0    0    0 -0.00000000000E+00 -0.00000000000E+00 -0.50000000000E+03  0.50000000000E+03  0.00000000000E+00 0. -1.
  1000024    1    1    2    0    0 -0.37979543022E+03  0.26640002657E+03 -0.47354506446E+02  0.50000000000E+03  0.18039957800E+03 0.  1.
 -1000024    1    1    2    0    0  0.37979543022E+03 -0.26640002657E+03  0.47354506446E+02  0.50000000000E+03  0.18039957800E+03 0. -1.
</event>
<event>
 4   0  0.1092222E-03  0.2236068E+02  0.7957747E-01  0.1516063E+00
      -11   -1    0    0    0    0  0.00000000000E+00  0.00000000000E+00  0.50000000000E+03  0.50000000000E+03  0.00000000000E+00 0.  1.
       11   -1    0    0    0    0 -0.00000000000E+00 -0.00000000000E+00 -0.50000000000E+03  0.50000000000E+03  0.00000000000E+00 0. -1.
  1000024    1    1    2    0    0  0.21570047735E+02 -0.39341812275E+03  0.24942515108E+03  0.50000000000E+03  0.18039957800E+03 0. -1.
 -1000024    1    1    2    0    0 -0.21570047735E+02  0.39341812275E+03 -0.24942515108E+03  0.50000000000E+03  0.18039957800E+03 0.  1.
</event>
<event>
 4   0  0.1092222E-03  0.2236068E+02  0.7957747E-01  0.1516063E+00
      -11   -1    0    0    0    0  0.00000000000E+00  0.00000000000E+00  0.50000000000E+03  0.50000000000E+03  0.00000000000E+00 0.  1.
       11   -1    0    0    0    0 -0.00000000000E+00 -0.00000000000E+00 -0.50000000000E+03  0.50000000000E+03  0.00000000000E+00 0. -1.
  1000024    1    1    2    0    0 -0.34251023669E+03 -0.28625942860E+03  0.13490096204E+03  0.50000000000E+03  0.18039957800E+03 0.  1.
 -1000024    1    1    2    0    0  0.34251023669E+03  0.28625942860E+03 -0.13490096204E+03  0.50000000000E+03  0.18039957800E+03 0. -1.
</event>
<event>
 4   0  0.6712789E-04  0.2236068E+02  0.7957747E-01  0.1516063E+00
      -11   -1    0    0    0    0  0.00000000000E+00  0.00000000000E+00  0.50000000000E+03  0.50000000000E+03  0.00000000000E+00 0.  1.
       11   -1    0    0    0    0 -0.00000000000E+00 -0.00000000000E+00 -0.50000000000E+03  0.50000000000E+03  0.00000000000E+00 0. -1.
  1000024    1    1    2    0    0  0.18166822166E+03  0.33072069844E+03  0.27400085606E+03  0.50000000000E+03  0.18039957800E+03 0.  1.
 -1000024    1    1    2    0    0 -0.18166822166E+03 -0.33072069844E+03 -0.27400085606E+03  0.50000000000E+03  0.18039957800E+03 0. -1.
</event>
<event>
 4   0  0.1092222E-03  0.2236068E+02  0.7957747E-01  0.1516063E+00
      -11   -1    0    0    0    0  0.00000000000E+00  0.00000000000E+00  0.50000000000E+03  0.50000000000E+03  0.00000000000E+00 0.  1.
       11   -1    0    0    0    0 -0.00000000000E+00 -0.00000000000E+00 -0.50000000000E+03  0.50000000000E+03  0.00000000000E+00 0. -1.
  1000024    1    1    2    0    0 -0.16855422836E+03 -0.42829794712E+03  0.74875448919E+02  0.50000000000E+03  0.18039957800E+03 0.  1.
 -1000024    1    1    2    0    0  0.16855422836E+03  0.42829794712E+03 -0.74875448919E+02  0.50000000000E+03  0.18039957800E+03 0. -1.
</event>
<event>
 4   0  0.7366543E-04  0.2236068E+02  0.7957747E-01  0.1516063E+00
      -11   -1    0    0    0    0  0.00000000000E+00  0.00000000000E+00  0.50000000000E+03  0.50000000000E+03  0.00000000000E+00 0.  1.
       11   -1    0    0    0    0 -0.00000000000E+00 -0.00000000000E+00 -0.50000000000E+03  0.50000000000E+03  0.00000000000E+00 0. -1.
  1000024    1    1    2    0    0 -0.36839105008E+03  0.17462549569E+03  0.22638454615E+03  0.50000000000E+03  0.18039957800E+03 0.  1.
 -1000024    1    1    2    0    0  0.36839105008E+03 -0.17462549569E+03 -0.22638454615E+03  0.50000000000E+03  0.18039957800E+03 0. -1.
</event>
<event>
 4   0  0.7366543E-04  0.2236068E+02  0.7957747E-01  0.1516063E+00
      -11   -1    0    0    0    0  0.00000000000E+00  0.00000000000E+00  0.50000000000E+03  0.50000000000E+03  0.00000000000E+00 0.  1.
       11   -1    0    0    0    0 -0.00000000000E+00 -0.00000000000E+00 -0.50000000000E+03  0.50000000000E+03  0.00000000000E+00 0. -1.
  1000024    1    1    2    0    0  0.22060746961E+03  0.31973502157E+03  0.25798808615E+03  0.50000000000E+03  0.18039957800E+03 0.  1.
 -1000024    1    1    2    0    0 -0.22060746961E+03 -0.31973502157E+03 -0.25798808615E+03  0.50000000000E+03  0.18039957800E+03 0. -1.
</event>
<event>
 4   0  0.1092222E-03  0.2236068E+02  0.7957747E-01  0.1516063E+00
      -11   -1    0    0    0    0  0.00000000000E+00  0.00000000000E+00  0.50000000000E+03  0.50000000000E+03  0.00000000000E+00 0.  1.
       11   -1    0    0    0    0 -0.00000000000E+00 -0.00000000000E+00 -0.50000000000E+03  0.50000000000E+03  0.00000000000E+00 0. -1.
  1000024    1    1    2    0    0  0.45406331272E+03 -0.66912477291E+02  0.82493761482E+02  0.50000000000E+03  0.18039957800E+03 0.  1.
 -1000024    1    1    2    0    0 -0.45406331272E+03  0.66912477291E+02 -0.82493761482E+02  0.50000000000E+03  0.18039957800E+03 0. -1.
</event>
<event>
 4   0  0.1092222E-03  0.2236068E+02  0.7957747E-01  0.1516063E+00
      -11   -1    0    0    0    0  0.00000000000E+00  0.00000000000E+00  0.50000000000E+03  0.50000000000E+03  0.00000000000E+00 0.  1.
       11   -1    0    0    0    0 -0.00000000000E+00 -0.00000000000E+00 -0.50000000000E+03  0.50000000000E+03  0.00000000000E+00 0. -1.
  1000024    1    1    2    0    0  0.56212484253E+02 -0.27241658327E+03  0.37427978042E+03  0.50000000000E+03  0.18039957800E+03 0.  1.
 -1000024    1    1    2    0    0 -0.56212484253E+02  0.27241658327E+03 -0.37427978042E+03  0.50000000000E+03  0.18039957800E+03 0. -1.
</event>
<event>
 4   0  0.7366543E-04  0.2236068E+02  0.7957747E-01  0.1516063E+00
      -11   -1    0    0    0    0  0.00000000000E+00  0.00000000000E+00  0.50000000000E+03  0.50000000000E+03  0.00000000000E+00 0.  1.
       11   -1    0    0    0    0 -0.00000000000E+00 -0.00000000000E+00 -0.50000000000E+03  0.50000000000E+03  0.00000000000E+00 0. -1.
  1000024    1    1    2    0    0  0.39034145286E+03 -0.23193796875E+03  0.10627474341E+03  0.50000000000E+03  0.18039957800E+03 0. -1.
 -1000024    1    1    2    0    0 -0.39034145286E+03  0.23193796875E+03 -0.10627474341E+03  0.50000000000E+03  0.18039957800E+03 0.  1.
</event>
<event>
 4   0  0.7366543E-04  0.2236068E+02  0.7957747E-01  0.1516063E+00
      -11   -1    0    0    0    0  0.00000000000E+00  0.00000000000E+00  0.50000000000E+03  0.50000000000E+03  0.00000000000E+00 0.  1.
       11   -1    0    0    0    0 -0.00000000000E+00 -0.00000000000E+00 -0.50000000000E+03  0.50000000000E+03  0.00000000000E+00 0. -1.
  1000024    1    1    2    0    0 -0.16028169128E+03  0.42682973224E+03  0.97888463970E+02  0.50000000000E+03  0.18039957800E+03 0. -1.
 -1000024    1    1    2    0    0  0.16028169128E+03 -0.42682973224E+03 -0.97888463970E+02  0.50000000000E+03  0.18039957800E+03 0.  1.
</event>
<event>
 4   0  0.1092222E-03  0.2236068E+02  0.7957747E-01  0.1516063E+00
      -11   -1    0    0    0    0  0.00000000000E+00  0.00000000000E+00  0.50000000000E+03  0.50000000000E+03  0.00000000000E+00 0.  1.
       11   -1    0    0    0    0 -0.00000000000E+00 -0.00000000000E+00 -0.50000000000E+03  0.50000000000E+03  0.00000000000E+00 0. -1.
  1000024    1    1    2    0    0 -0.40972558286E+03 -0.22229997955E+03 -0.12792892593E+02  0.50000000000E+03  0.18039957800E+03 0. -1.
 -1000024    1    1    2    0    0  0.40972558286E+03  0.22229997955E+03  0.12792892593E+02  0.50000000000E+03  0.18039957800E+03 0.  1.
</event>
<event>
 4   0  0.7366543E-04  0.2236068E+02  0.7957747E-01  0.1516063E+00
      -11   -1    0    0    0    0  0.00000000000E+00  0.00000000000E+00  0.50000000000E+03  0.50000000000E+03  0.00000000000E+00 0.  1.
       11   -1    0    0    0    0 -0.00000000000E+00 -0.00000000000E+00 -0.50000000000E+03  0.50000000000E+03  0.00000000000E+00 0. -1.
  1000024    1    1    2    0    0  0.40283981310E+02 -0.28940896502E+03  0.36342212931E+03  0.50000000000E+03  0.18039957800E+03 0. -1.
 -1000024    1    1    2    0    0 -0.40283981310E+02  0.28940896502E+03 -0.36342212931E+03  0.50000000000E+03  0.18039957800E+03 0.  1.
</event>
<event>
 4   0  0.7366543E-04  0.2236068E+02  0.7957747E-01  0.1516063E+00
      -11   -1    0    0    0    0  0.00000000000E+00  0.00000000000E+00  0.50000000000E+03  0.50000000000E+03  0.00000000000E+00 0.  1.
       11   -1    0    0    0    0 -0.00000000000E+00 -0.00000000000E+00 -0.50000000000E+03  0.50000000000E+03  0.00000000000E+00 0. -1.
  1000024    1    1    2    0    0  0.10242141908E+03  0.25420972599E+03  0.37728405795E+03  0.50000000000E+03  0.18039957800E+03 0. -1.
 -1000024    1    1    2    0    0 -0.10242141908E+03 -0.25420972599E+03 -0.37728405795E+03  0.50000000000E+03  0.18039957800E+03 0. -1.
</event>
<event>
 4   0  0.6712789E-04  0.2236068E+02  0.7957747E-01  0.1516063E+00
      -11   -1    0    0    0    0  0.00000000000E+00  0.00000000000E+00  0.50000000000E+03  0.50000000000E+03  0.00000000000E+00 0.  1.
       11   -1    0    0    0    0 -0.00000000000E+00 -0.00000000000E+00 -0.50000000000E+03  0.50000000000E+03  0.00000000000E+00 0. -1.
  1000024    1    1    2    0    0 -0.99773518638E+01 -0.34851304595E+03  0.30966934222E+03  0.50000000000E+03  0.18039957800E+03 0.  1.
 -1000024    1    1    2    0    0  0.99773518638E+01  0.34851304595E+03 -0.30966934222E+03  0.50000000000E+03  0.18039957800E+03 0.  1.
</event>
<event>
 4   0  0.1092222E-03  0.2236068E+02  0.7957747E-01  0.1516063E+00
      -11   -1    0    0    0    0  0.00000000000E+00  0.00000000000E+00  0.50000000000E+03  0.50000000000E+03  0.00000000000E+00 0.  1.
       11   -1    0    0    0    0 -0.00000000000E+00 -0.00000000000E+00 -0.50000000000E+03  0.50000000000E+03  0.00000000000E+00 0. -1.
  1000024    1    1    2    0    0 -0.41549729410E+03 -0.57422328891E+02  0.20376620670E+03  0.50000000000E+03  0.18039957800E+03 0.  1.
 -1000024    1    1    2    0    0  0.41549729410E+03  0.57422328891E+02 -0.20376620670E+03  0.50000000000E+03  0.18039957800E+03 0. -1.
</event>
<event>
 4   0  0.1092222E-03  0.2236068E+02  0.7957747E-01  0.1516063E+00
      -11   -1    0    0    0    0  0.00000000000E+00  0.00000000000E+00  0.50000000000E+03  0.50000000000E+03  0.00000000000E+00 0.  1.
       11   -1    0    0    0    0 -0.00000000000E+00 -0.00000000000E+00 -0.50000000000E+03  0.50000000000E+03  0.00000000000E+00 0. -1.
  1000024    1    1    2    0    0  0.43015091494E+03  0.15461001060E+03  0.92314285225E+02  0.50000000000E+03  0.18039957800E+03 0.  1.
 -1000024    1    1    2    0    0 -0.43015091494E+03 -0.15461001060E+03 -0.92314285225E+02  0.50000000000E+03  0.18039957800E+03 0. -1.
</event>
<event>
 4   0  0.6712789E-04  0.2236068E+02  0.7957747E-01  0.1516063E+00
      -11   -1    0    0    0    0  0.00000000000E+00  0.00000000000E+00  0.50000000000E+03  0.50000000000E+03  0.00000000000E+00 0.  1.
       11   -1    0    0    0    0 -0.00000000000E+00 -0.00000000000E+00 -0.50000000000E+03  0.50000000000E+03  0.00000000000E+00 0. -1.
  1000024    1    1    2    0    0  0.35252308913E+03  0.27231214062E+03 -0.13794767834E+03  0.50000000000E+03  0.18039957800E+03 0.  1.
 -1000024    1    1    2    0    0 -0.35252308913E+03 -0.27231214062E+03  0.13794767834E+03  0.50000000000E+03  0.18039957800E+03 0. -1.
</event>
<event>
 4   0  0.7366543E-04  0.2236068E+02  0.7957747E-01  0.1516063E+00
      -11   -1    0    0    0    0  0.00000000000E+00  0.00000000000E+00  0.50000000000E+03  0.50000000000E+03  0.00000000000E+00 0.  1.
       11   -1    0    0    0    0 -0.00000000000E+00 -0.00000000000E+00 -0.50000000000E+03  0.50000000000E+03  0.00000000000E+00 0. -1.
  1000024    1    1    2    0    0 -0.35528200618E+03 -0.82928465619E+02  0.29043683983E+03  0.50000000000E+03  0.18039957800E+03 0. -1.
 -1000024    1    1    2    0    0  0.35528200618E+03  0.82928465619E+02 -0.29043683983E+03  0.50000000000E+03  0.18039957800E+03 0.  1.
</event>
<event>
 4   0  0.1092222E-03  0.2236068E+02  0.7957747E-01  0.1516063E+00
      -11   -1    0    0    0    0  0.00000000000E+00  0.00000000000E+00  0.50000000000E+03  0.50000000000E+03  0.00000000000E+00 0.  1.
       11   -1    0    0    0    0 -0.00000000000E+00 -0.00000000000E+00 -0.50000000000E+03  0.50000000000E+03  0.00000000000E+00 0. -1.
  1000024    1    1    2    0    0 -0.46584802007E+03  0.18746830488E+02 -0.94958304771E+01  0.50000000000E+03  0.18039957800E+03 0. -1.
 -1000024    1    1    2    0    0  0.46584802007E+03 -0.18746830488E+02  0.94958304771E+01  0.50000000000E+03  0.18039957800E+03 0.  1.
</event>
<event>
 4   0  0.1092222E-03  0.2236068E+02  0.7957747E-01  0.1516063E+00
      -11   -1    0    0    0    0  0.00000000000E+00  0.00000000000E+00  0.50000000000E+03  0.50000000000E+03  0.00000000000E+00 0.  1.
       11   -1    0    0    0    0 -0.00000000000E+00 -0.00000000000E+00 -0.50000000000E+03  0.50000000000E+03  0.00000000000E+00 0. -1.
  1000024    1    1    2    0    0  0.31824528646E+03  0.10751665062E+03  0.32344412152E+03  0.50000000000E+03  0.18039957800E+03 0. -1.
 -1000024    1    1    2    0    0 -0.31824528646E+03 -0.10751665062E+03 -0.32344412152E+03  0.50000000000E+03  0.18039957800E+03 0.  1.
</event>
<event>
 4   0  0.7366543E-04  0.2236068E+02  0.7957747E-01  0.1516063E+00
      -11   -1    0    0    0    0  0.00000000000E+00  0.00000000000E+00  0.50000000000E+03  0.50000000000E+03  0.00000000000E+00 0.  1.
       11   -1    0    0    0    0 -0.00000000000E+00 -0.00000000000E+00 -0.50000000000E+03  0.50000000000E+03  0.00000000000E+00 0. -1.
  1000024    1    1    2    0    0 -0.19616138394E+03  0.22767079476E+03  0.35657076846E+03  0.50000000000E+03  0.18039957800E+03 0. -1.
 -1000024    1    1    2    0    0  0.19616138394E+03 -0.22767079476E+03 -0.35657076846E+03  0.50000000000E+03  0.18039957800E+03 0. -1.
</event>
<event>
 4   0  0.1092222E-03  0.2236068E+02  0.7957747E-01  0.1516063E+00
      -11   -1    0    0    0    0  0.00000000000E+00  0.00000000000E+00  0.50000000000E+03  0.50000000000E+03  0.00000000000E+00 0.  1.
       11   -1    0    0    0    0 -0.00000000000E+00 -0.00000000000E+00 -0.50000000000E+03  0.50000000000E+03  0.00000000000E+00 0. -1.
  1000024    1    1    2    0    0 -0.26683179347E+03  0.29437359532E+03  0.24413310433E+03  0.50000000000E+03  0.18039957800E+03 0.  1.
 -1000024    1    1    2    0    0  0.26683179347E+03 -0.29437359532E+03 -0.24413310433E+03  0.50000000000E+03  0.18039957800E+03 0. -1.
</event>
<event>
 4   0  0.1092222E-03  0.2236068E+02  0.7957747E-01  0.1516063E+00
      -11   -1    0    0    0    0  0.00000000000E+00  0.00000000000E+00  0.50000000000E+03  0.50000000000E+03  0.00000000000E+00 0.  1.
       11   -1    0    0    0    0 -0.00000000000E+00 -0.00000000000E+00 -0.50000000000E+03  0.50000000000E+03  0.00000000000E+00 0. -1.
  1000024    1    1    2    0    0 -0.21346324473E+03 -0.80459285305E+02  0.40671333739E+03  0.50000000000E+03  0.18039957800E+03 0.  1.
 -1000024    1    1    2    0    0  0.21346324473E+03  0.80459285305E+02 -0.40671333739E+03  0.50000000000E+03  0.18039957800E+03 0.  1.
</event>
<event>
 4   0  0.6712789E-04  0.2236068E+02  0.7957747E-01  0.1516063E+00
      -11   -1    0    0    0    0  0.00000000000E+00  0.00000000000E+00  0.50000000000E+03  0.50000000000E+03  0.00000000000E+00 0.  1.
       11   -1    0    0    0    0 -0.00000000000E+00 -0.00000000000E+00 -0.50000000000E+03  0.50000000000E+03  0.00000000000E+00 0. -1.
  1000024    1    1    2    0    0 -0.44436196410E+03  0.46206454261E+02  0.13365403361E+03  0.50000000000E+03  0.18039957800E+03 0.  1.
 -1000024    1    1    2    0    0  0.44436196410E+03 -0.46206454261E+02 -0.13365403361E+03  0.50000000000E+03  0.18039957800E+03 0. -1.
</event>
<event>
 4   0  0.1092222E-03  0.2236068E+02  0.7957747E-01  0.1516063E+00
      -11   -1    0    0    0    0  0.00000000000E+00  0.00000000000E+00  0.50000000000E+03  0.50000000000E+03  0.00000000000E+00 0.  1.
       11   -1    0    0    0    0 -0.00000000000E+00 -0.00000000000E+00 -0.50000000000E+03  0.50000000000E+03  0.00000000000E+00 0. -1.
  1000024    1    1    2    0    0  0.33814534962E+03 -0.10599605586E+03  0.30311474878E+03  0.50000000000E+03  0.18039957800E+03 0. -1.
 -1000024    1    1    2    0    0 -0.33814534962E+03  0.10599605586E+03 -0.30311474878E+03  0.50000000000E+03  0.18039957800E+03 0.  1.
</event>
<event>
 4   0  0.1092222E-03  0.2236068E+02  0.7957747E-01  0.1516063E+00
      -11   -1    0    0    0    0  0.00000000000E+00  0.00000000000E+00  0.50000000000E+03  0.50000000000E+03  0.00000000000E+00 0.  1.
       11   -1    0    0    0    0 -0.00000000000E+00 -0.00000000000E+00 -0.50000000000E+03  0.50000000000E+03  0.00000000000E+00 0. -1.
  1000024    1    1    2    0    0  0.91595191260E+02  0.37684582824E+03  0.25894697321E+03  0.50000000000E+03  0.18039957800E+03 0. -1.
 -1000024    1    1    2    0    0 -0.91595191260E+02 -0.37684582824E+03 -0.25894697321E+03  0.50000000000E+03  0.18039957800E+03 0.  1.
</event>
<event>
 4   0  0.6712789E-04  0.2236068E+02  0.7957747E-01  0.1516063E+00
      -11   -1    0    0    0    0  0.00000000000E+00  0.00000000000E+00  0.50000000000E+03  0.50000000000E+03  0.00000000000E+00 0.  1.
       11   -1    0    0    0    0 -0.00000000000E+00 -0.00000000000E+00 -0.50000000000E+03  0.50000000000E+03  0.00000000000E+00 0. -1.
  1000024    1    1    2    0    0  0.40008858239E+03 -0.23415124100E+03 -0.50579786863E+02  0.50000000000E+03  0.18039957800E+03 0.  1.
 -1000024    1    1    2    0    0 -0.40008858239E+03  0.23415124100E+03  0.50579786863E+02  0.50000000000E+03  0.18039957800E+03 0. -1.
</event>
<event>
 4   0  0.1092222E-03  0.2236068E+02  0.7957747E-01  0.1516063E+00
      -11   -1    0    0    0    0  0.00000000000E+00  0.00000000000E+00  0.50000000000E+03  0.50000000000E+03  0.00000000000E+00 0.  1.
       11   -1    0    0    0    0 -0.00000000000E+00 -0.00000000000E+00 -0.50000000000E+03  0.50000000000E+03  0.00000000000E+00 0. -1.
  1000024    1    1    2    0    0 -0.45672071616E+03  0.85642743252E+02 -0.39083247310E+02  0.50000000000E+03  0.18039957800E+03 0. -1.
 -1000024    1    1    2    0    0  0.45672071616E+03 -0.85642743252E+02  0.39083247310E+02  0.50000000000E+03  0.18039957800E+03 0.  1.
</event>
<event>
 4   0  0.6712789E-04  0.2236068E+02  0.7957747E-01  0.1516063E+00
      -11   -1    0    0    0    0  0.00000000000E+00  0.00000000000E+00  0.50000000000E+03  0.50000000000E+03  0.00000000000E+00 0.  1.
       11   -1    0    0    0    0 -0.00000000000E+00 -0.00000000000E+00 -0.50000000000E+03  0.50000000000E+03  0.00000000000E+00 0. -1.
  1000024    1    1    2    0    0  0.15670157788E+03 -0.30597094059E+03  0.31509108407E+03  0.50000000000E+03  0.18039957800E+03 0. -1.
 -1000024    1    1    2    0    0 -0.15670157788E+03  0.30597094059E+03 -0.31509108407E+03  0.50000000000E+03  0.18039957800E+03 0.  1.
</event>
<event>
 4   0  0.1092222E-03  0.2236068E+02  0.7957747E-01  0.1516063E+00
      -11   -1    0    0    0    0  0.00000000000E+00  0.00000000000E+00  0.50000000000E+03  0.50000000000E+03  0.00000000000E+00 0.  1.
       11   -1    0    0    0    0 -0.00000000000E+00 -0.00000000000E+00 -0.50000000000E+03  0.50000000000E+03  0.00000000000E+00 0. -1.
  1000024    1    1    2    0    0 -0.20656556155E+02  0.45490898600E+03  0.10043462253E+03  0.50000000000E+03  0.18039957800E+03 0. -1.
 -1000024    1    1    2    0    0  0.20656556155E+02 -0.45490898600E+03 -0.10043462253E+03  0.50000000000E+03  0.18039957800E+03 0.  1.
</event>
<event>
 4   0  0.1092222E-03  0.2236068E+02  0.7957747E-01  0.1516063E+00
      -11   -1    0    0    0    0  0.00000000000E+00  0.00000000000E+00  0.50000000000E+03  0.50000000000E+03  0.00000000000E+00 0.  1.
       11   -1    0    0    0    0 -0.00000000000E+00 -0.00000000000E+00 -0.50000000000E+03  0.50000000000E+03  0.00000000000E+00 0. -1.
  1000024    1    1    2    0    0  0.86749297769E+02 -0.54491066065E+01  0.45814938484E+03  0.50000000000E+03  0.18039957800E+03 0.  1.
 -1000024    1    1    2    0    0 -0.86749297769E+02  0.54491066065E+01 -0.45814938484E+03  0.50000000000E+03  0.18039957800E+03 0. -1.
</event>
<event>
 4   0  0.6712789E-04  0.2236068E+02  0.7957747E-01  0.1516063E+00
      -11   -1    0    0    0    0  0.00000000000E+00  0.00000000000E+00  0.50000000000E+03  0.50000000000E+03  0.00000000000E+00 0.  1.
       11   -1    0    0    0    0 -0.00000000000E+00 -0.00000000000E+00 -0.50000000000E+03  0.50000000000E+03  0.00000000000E+00 0. -1.
  1000024    1    1    2    0    0 -0.44667537696E+03 -0.95622017772E+02  0.93773821450E+02  0.50000000000E+03  0.18039957800E+03 0. -1.
 -1000024    1    1    2    0    0  0.44667537696E+03  0.95622017772E+02 -0.93773821450E+02  0.50000000000E+03  0.18039957800E+03 0.  1.
</event>
<event>
 4   0  0.1092222E-03  0.2236068E+02  0.7957747E-01  0.1516063E+00
      -11   -1    0    0    0    0  0.00000000000E+00  0.00000000000E+00  0.50000000000E+03  0.50000000000E+03  0.00000000000E+00 0.  1.
       11   -1    0    0    0    0 -0.00000000000E+00 -0.00000000000E+00 -0.50000000000E+03  0.50000000000E+03  0.00000000000E+00 0. -1.
  1000024    1    1    2    0    0 -0.42984345517E+03  0.38839180304E+02  0.17658458138E+03  0.50000000000E+03  0.18039957800E+03 0. -1.
 -1000024    1    1    2    0    0  0.42984345517E+03 -0.38839180304E+02 -0.17658458138E+03  0.50000000000E+03  0.18039957800E+03 0.  1.
</event>
<event>
 4   0  0.1092222E-03  0.2236068E+02  0.7957747E-01  0.1516063E+00
      -11   -1    0    0    0    0  0.00000000000E+00  0.00000000000E+00  0.50000000000E+03  0.50000000000E+03  0.00000000000E+00 0.  1.
       11   -1    0    0    0    0 -0.00000000000E+00 -0.00000000000E+00 -0.50000000000E+03  0.50000000000E+03  0.00000000000E+00 0. -1.
  1000024    1    1    2    0    0 -0.19669568977E+03 -0.29179674664E+03  0.30597623525E+03  0.50000000000E+03  0.18039957800E+03 0.  1.
 -1000024    1    1    2    0    0  0.19669568977E+03  0.29179674664E+03 -0.30597623525E+03  0.50000000000E+03  0.18039957800E+03 0. -1.
</event>
<event>
 4   0  0.7366543E-04  0.2236068E+02  0.7957747E-01  0.1516063E+00
      -11   -1    0    0    0    0  0.00000000000E+00  0.00000000000E+00  0.50000000000E+03  0.50000000000E+03  0.00000000000E+00 0.  1.
       11   -1    0    0    0    0 -0.00000000000E+00 -0.00000000000E+00 -0.50000000000E+03  0.50000000000E+03  0.00000000000E+00 0. -1.
  1000024    1    1    2    0    0 -0.35688688587E+03  0.22520821676E+02  0.29930010949E+03  0.50000000000E+03  0.18039957800E+03 0. -1.
 -1000024    1    1    2    0    0  0.35688688587E+03 -0.22520821676E+02 -0.29930010949E+03  0.50000000000E+03  0.18039957800E+03 0.  1.
</event>
<event>
 4   0  0.6712789E-04  0.2236068E+02  0.7957747E-01  0.1516063E+00
      -11   -1    0    0    0    0  0.00000000000E+00  0.00000000000E+00  0.50000000000E+03  0.50000000000E+03  0.00000000000E+00 0.  1.
       11   -1    0    0    0    0 -0.00000000000E+00 -0.00000000000E+00 -0.50000000000E+03  0.50000000000E+03  0.00000000000E+00 0. -1.
  1000024    1    1    2    0    0 -0.14336637692E+03 -0.16746688123E+03  0.41092203387E+03  0.50000000000E+03  0.18039957800E+03 0. -1.
 -1000024    1    1    2    0    0  0.14336637692E+03  0.16746688123E+03 -0.41092203387E+03  0.50000000000E+03  0.18039957800E+03 0. -1.
</event>
<event>
 4   0  0.1092222E-03  0.2236068E+02  0.7957747E-01  0.1516063E+00
      -11   -1    0    0    0    0  0.00000000000E+00  0.00000000000E+00  0.50000000000E+03  0.50000000000E+03  0.00000000000E+00 0.  1.
       11   -1    0    0    0    0 -0.00000000000E+00 -0.00000000000E+00 -0.50000000000E+03  0.50000000000E+03  0.00000000000E+00 0. -1.
  1000024    1    1    2    0    0 -0.12791684432E+03 -0.44824046859E+03  0.13181635674E+02  0.50000000000E+03  0.18039957800E+03 0. -1.
 -1000024    1    1    2    0    0  0.12791684432E+03  0.44824046859E+03 -0.13181635674E+02  0.50000000000E+03  0.18039957800E+03 0.  1.
</event>
<event>
 4   0  0.7366543E-04  0.2236068E+02  0.7957747E-01  0.1516063E+00
      -11   -1    0    0    0    0  0.00000000000E+00  0.00000000000E+00  0.50000000000E+03  0.50000000000E+03  0.00000000000E+00 0.  1.
       11   -1    0    0    0    0 -0.00000000000E+00 -0.00000000000E+00 -0.50000000000E+03  0.50000000000E+03  0.00000000000E+00 0. -1.
  1000024    1    1    2    0    0 -0.24001040486E+02 -0.16152064342E+03  0.43679631874E+03  0.50000000000E+03  0.18039957800E+03 0. -1.
 -1000024    1    1    2    0    0  0.24001040486E+02  0.16152064342E+03 -0.43679631874E+03  0.50000000000E+03  0.18039957800E+03 0. -1.
</event>
<event>
 4   0  0.1092222E-03  0.2236068E+02  0.7957747E-01  0.1516063E+00
      -11   -1    0    0    0    0  0.00000000000E+00  0.00000000000E+00  0.50000000000E+03  0.50000000000E+03  0.00000000000E+00 0.  1.
       11   -1    0    0    0    0 -0.00000000000E+00 -0.00000000000E+00 -0.50000000000E+03  0.50000000000E+03  0.00000000000E+00 0. -1.
  1000024    1    1    2    0    0  0.33143453923E+03 -0.29416548417E+03  0.14516820033E+03  0.50000000000E+03  0.18039957800E+03 0. -1.
 -1000024    1    1    2    0    0 -0.33143453923E+03  0.29416548417E+03 -0.14516820033E+03  0.50000000000E+03  0.18039957800E+03 0.  1.
</event>
<event>
 4   0  0.6712789E-04  0.2236068E+02  0.7957747E-01  0.1516063E+00
      -11   -1    0    0    0    0  0.00000000000E+00  0.00000000000E+00  0.50000000000E+03  0.50000000000E+03  0.00000000000E+00 0.  1.
       11   -1    0    0    0    0 -0.00000000000E+00 -0.00000000000E+00 -0.50000000000E+03  0.50000000000E+03  0.00000000000E+00 0. -1.
  1000024    1    1    2    0    0 -0.43778956558E+03 -0.14422858406E+03 -0.70671097802E+02  0.50000000000E+03  0.18039957800E+03 0. -1.
 -1000024    1    1    2    0    0  0.43778956558E+03  0.14422858406E+03  0.70671097802E+02  0.50000000000E+03  0.18039957800E+03 0.  1.
</event>
<event>
 4   0  0.6712789E-04  0.2236068E+02  0.7957747E-01  0.1516063E+00
      -11   -1    0    0    0    0  0.00000000000E+00  0.00000000000E+00  0.50000000000E+03  0.50000000000E+03  0.00000000000E+00 0.  1.
       11   -1    0    0    0    0 -0.00000000000E+00 -0.00000000000E+00 -0.50000000000E+03  0.50000000000E+03  0.00000000000E+00 0. -1.
  1000024    1    1    2    0    0  0.11918356724E+03  0.44063523754E+03  0.95351229653E+02  0.50000000000E+03  0.18039957800E+03 0. -1.
 -1000024    1    1    2    0    0 -0.11918356724E+03 -0.44063523754E+03 -0.95351229653E+02  0.50000000000E+03  0.18039957800E+03 0.  1.
</event>
<event>
 4   0  0.1092222E-03  0.2236068E+02  0.7957747E-01  0.1516063E+00
      -11   -1    0    0    0    0  0.00000000000E+00  0.00000000000E+00  0.50000000000E+03  0.50000000000E+03  0.00000000000E+00 0.  1.
       11   -1    0    0    0    0 -0.00000000000E+00 -0.00000000000E+00 -0.50000000000E+03  0.50000000000E+03  0.00000000000E+00 0. -1.
  1000024    1    1    2    0    0  0.33593959722E+03  0.29336757839E+03 -0.13614713815E+03  0.50000000000E+03  0.18039957800E+03 0. -1.
 -1000024    1    1    2    0    0 -0.33593959722E+03 -0.29336757839E+03  0.13614713815E+03  0.50000000000E+03  0.18039957800E+03 0.  1.
</event>
<event>
 4   0  0.7366543E-04  0.2236068E+02  0.7957747E-01  0.1516063E+00
      -11   -1    0    0    0    0  0.00000000000E+00  0.00000000000E+00  0.50000000000E+03  0.50000000000E+03  0.00000000000E+00 0.  1.
       11   -1    0    0    0    0 -0.00000000000E+00 -0.00000000000E+00 -0.50000000000E+03  0.50000000000E+03  0.00000000000E+00 0. -1.
  1000024    1    1    2    0    0 -0.13186316113E+03  0.44554737890E+03  0.39441502918E+02  0.50000000000E+03  0.18039957800E+03 0. -1.
 -1000024    1    1    2    0    0  0.13186316113E+03 -0.44554737890E+03 -0.39441502918E+02  0.50000000000E+03  0.18039957800E+03 0.  1.
</event>
<event>
 4   0  0.6712789E-04  0.2236068E+02  0.7957747E-01  0.1516063E+00
      -11   -1    0    0    0    0  0.00000000000E+00  0.00000000000E+00  0.50000000000E+03  0.50000000000E+03  0.00000000000E+00 0.  1.
       11   -1    0    0    0    0 -0.00000000000E+00 -0.00000000000E+00 -0.50000000000E+03  0.50000000000E+03  0.00000000000E+00 0. -1.
  1000024    1    1    2    0    0  0.42467272631E+03  0.96323036055E+02 -0.16682607863E+03  0.50000000000E+03  0.18039957800E+03 0.  1.
 -1000024    1    1    2    0    0 -0.42467272631E+03 -0.96323036055E+02  0.16682607863E+03  0.50000000000E+03  0.18039957800E+03 0. -1.
</event>
<event>
 4   0  0.7366543E-04  0.2236068E+02  0.7957747E-01  0.1516063E+00
      -11   -1    0    0    0    0  0.00000000000E+00  0.00000000000E+00  0.50000000000E+03  0.50000000000E+03  0.00000000000E+00 0.  1.
       11   -1    0    0    0    0 -0.00000000000E+00 -0.00000000000E+00 -0.50000000000E+03  0.50000000000E+03  0.00000000000E+00 0. -1.
  1000024    1    1    2    0    0 -0.21891872359E+03 -0.20711029070E+03  0.35585939949E+03  0.50000000000E+03  0.18039957800E+03 0.  1.
 -1000024    1    1    2    0    0  0.21891872359E+03  0.20711029070E+03 -0.35585939949E+03  0.50000000000E+03  0.18039957800E+03 0. -1.
</event>
<event>
 4   0  0.1092222E-03  0.2236068E+02  0.7957747E-01  0.1516063E+00
      -11   -1    0    0    0    0  0.00000000000E+00  0.00000000000E+00  0.50000000000E+03  0.50000000000E+03  0.00000000000E+00 0.  1.
       11   -1    0    0    0    0 -0.00000000000E+00 -0.00000000000E+00 -0.50000000000E+03  0.50000000000E+03  0.00000000000E+00 0. -1.
  1000024    1    1    2    0    0 -0.28093922366E+03  0.32937404366E+03  0.17332594794E+03  0.50000000000E+03  0.18039957800E+03 0. -1.
 -1000024    1    1    2    0    0  0.28093922366E+03 -0.32937404366E+03 -0.17332594794E+03  0.50000000000E+03  0.18039957800E+03 0.  1.
</event>
<event>
 4   0  0.7366543E-04  0.2236068E+02  0.7957747E-01  0.1516063E+00
      -11   -1    0    0    0    0  0.00000000000E+00  0.00000000000E+00  0.50000000000E+03  0.50000000000E+03  0.00000000000E+00 0.  1.
       11   -1    0    0    0    0 -0.00000000000E+00 -0.00000000000E+00 -0.50000000000E+03  0.50000000000E+03  0.00000000000E+00 0. -1.
  1000024    1    1    2    0    0 -0.34080030048E+03  0.84280998802E+02  0.30693299055E+03  0.50000000000E+03  0.18039957800E+03 0. -1.
 -1000024    1    1    2    0    0  0.34080030048E+03 -0.84280998802E+02 -0.30693299055E+03  0.50000000000E+03  0.18039957800E+03 0.  1.
</event>
<event>
 4   0  0.6712789E-04  0.2236068E+02  0.7957747E-01  0.1516063E+00
      -11   -1    0    0    0    0  0.00000000000E+00  0.00000000000E+00  0.50000000000E+03  0.50000000000E+03  0.00000000000E+00 0.  1.
       11   -1    0    0    0    0 -0.00000000000E+00 -0.00000000000E+00 -0.50000000000E+03  0.50000000000E+03  0.00000000000E+00 0. -1.
  1000024    1    1    2    0    0  0.13410564623E+03 -0.41376392979E+03 -0.16814005563E+03  0.50000000000E+03  0.18039957800E+03 0. -1.
 -1000024    1    1    2    0    0 -0.13410564623E+03  0.41376392979E+03  0.16814005563E+03  0.50000000000E+03  0.18039957800E+03 0.  1.
</event>
<event>
 4   0  0.6712789E-04  0.2236068E+02  0.7957747E-01  0.1516063E+00
      -11   -1    0    0    0    0  0.00000000000E+00  0.00000000000E+00  0.50000000000E+03  0.50000000000E+03  0.00000000000E+00 0.  1.
       11   -1    0    0    0    0 -0.00000000000E+00 -0.00000000000E+00 -0.50000000000E+03  0.50000000000E+03  0.00000000000E+00 0. -1.
  1000024    1    1    2    0    0  0.29179970907E+03  0.89193982283E+02  0.35263771149E+03  0.50000000000E+03  0.18039957800E+03 0. -1.
 -1000024    1    1    2    0    0 -0.29179970907E+03 -0.89193982283E+02 -0.35263771149E+03  0.50000000000E+03  0.18039957800E+03 0.  1.
</event>
<event>
 4   0  0.7366543E-04  0.2236068E+02  0.7957747E-01  0.1516063E+00
      -11   -1    0    0    0    0  0.00000000000E+00  0.00000000000E+00  0.50000000000E+03  0.50000000000E+03  0.00000000000E+00 0.  1.
       11   -1    0    0    0    0 -0.00000000000E+00 -0.00000000000E+00 -0.50000000000E+03  0.50000000000E+03  0.00000000000E+00 0. -1.
  1000024    1    1    2    0    0  0.34180027056E+03  0.10809117858E+03  0.29823625604E+03  0.50000000000E+03  0.18039957800E+03 0.  1.
 -1000024    1    1    2    0    0 -0.34180027056E+03 -0.10809117858E+03 -0.29823625604E+03  0.50000000000E+03  0.18039957800E+03 0. -1.
</event>
<event>
 4   0  0.1092222E-03  0.2236068E+02  0.7957747E-01  0.1516063E+00
      -11   -1    0    0    0    0  0.00000000000E+00  0.00000000000E+00  0.50000000000E+03  0.50000000000E+03  0.00000000000E+00 0.  1.
       11   -1    0    0    0    0 -0.00000000000E+00 -0.00000000000E+00 -0.50000000000E+03  0.50000000000E+03  0.00000000000E+00 0. -1.
  1000024    1    1    2    0    0  0.43318945552E+03  0.90409336002E+01  0.17239822911E+03  0.50000000000E+03  0.18039957800E+03 0.  1.
 -1000024    1    1    2    0    0 -0.43318945552E+03 -0.90409336002E+01 -0.17239822911E+03  0.50000000000E+03  0.18039957800E+03 0. -1.
</event>
<event>
 4   0  0.1092222E-03  0.2236068E+02  0.7957747E-01  0.1516063E+00
      -11   -1    0    0    0    0  0.00000000000E+00  0.00000000000E+00  0.50000000000E+03  0.50000000000E+03  0.00000000000E+00 0.  1.
       11   -1    0    0    0    0 -0.00000000000E+00 -0.00000000000E+00 -0.50000000000E+03  0.50000000000E+03  0.00000000000E+00 0. -1.
  1000024    1    1    2    0    0  0.44408115073E+03  0.74358927429E+02  0.12132054127E+03  0.50000000000E+03  0.18039957800E+03 0. -1.
 -1000024    1    1    2    0    0 -0.44408115073E+03 -0.74358927429E+02 -0.12132054127E+03  0.50000000000E+03  0.18039957800E+03 0.  1.
</event>
<event>
 4   0  0.7366543E-04  0.2236068E+02  0.7957747E-01  0.1516063E+00
      -11   -1    0    0    0    0  0.00000000000E+00  0.00000000000E+00  0.50000000000E+03  0.50000000000E+03  0.00000000000E+00 0.  1.
       11   -1    0    0    0    0 -0.00000000000E+00 -0.00000000000E+00 -0.50000000000E+03  0.50000000000E+03  0.00000000000E+00 0. -1.
  1000024    1    1    2    0    0 -0.92599338033E+02  0.26073528904E+03  0.37536444145E+03  0.50000000000E+03  0.18039957800E+03 0.  1.
 -1000024    1    1    2    0    0  0.92599338033E+02 -0.26073528904E+03 -0.37536444145E+03  0.50000000000E+03  0.18039957800E+03 0. -1.
</event>
<event>
 4   0  0.7366543E-04  0.2236068E+02  0.7957747E-01  0.1516063E+00
      -11   -1    0    0    0    0  0.00000000000E+00  0.00000000000E+00  0.50000000000E+03  0.50000000000E+03  0.00000000000E+00 0.  1.
       11   -1    0    0    0    0 -0.00000000000E+00 -0.00000000000E+00 -0.50000000000E+03  0.50000000000E+03  0.00000000000E+00 0. -1.
  1000024    1    1    2    0    0  0.46605865861E+03  0.27981996643E+01 -0.15410680538E+02  0.50000000000E+03  0.18039957800E+03 0.  1.
 -1000024    1    1    2    0    0 -0.46605865861E+03 -0.27981996643E+01  0.15410680538E+02  0.50000000000E+03  0.18039957800E+03 0. -1.
</event>
<event>
 4   0  0.7366543E-04  0.2236068E+02  0.7957747E-01  0.1516063E+00
      -11   -1    0    0    0    0  0.00000000000E+00  0.00000000000E+00  0.50000000000E+03  0.50000000000E+03  0.00000000000E+00 0.  1.
       11   -1    0    0    0    0 -0.00000000000E+00 -0.00000000000E+00 -0.50000000000E+03  0.50000000000E+03  0.00000000000E+00 0. -1.
  1000024    1    1    2    0    0  0.19181125336E+03 -0.13044894227E+02  0.42484616754E+03  0.50000000000E+03  0.18039957800E+03 0.  1.
 -1000024    1    1    2    0    0 -0.19181125336E+03  0.13044894227E+02 -0.42484616754E+03  0.50000000000E+03  0.18039957800E+03 0.  1.
</event>
<event>
 4   0  0.6712789E-04  0.2236068E+02  0.7957747E-01  0.1516063E+00
      -11   -1    0    0    0    0  0.00000000000E+00  0.00000000000E+00  0.50000000000E+03  0.50000000000E+03  0.00000000000E+00 0.  1.
       11   -1    0    0    0    0 -0.00000000000E+00 -0.00000000000E+00 -0.50000000000E+03  0.50000000000E+03  0.00000000000E+00 0. -1.
  1000024    1    1    2    0    0  0.45424814300E+03  0.67098719918E+00  0.10542374787E+03  0.50000000000E+03  0.18039957800E+03 0. -1.
 -1000024    1    1    2    0    0 -0.45424814300E+03 -0.67098719918E+00 -0.10542374787E+03  0.50000000000E+03  0.18039957800E+03 0.  1.
</event>
<event>
 4   0  0.1092222E-03  0.2236068E+02  0.7957747E-01  0.1516063E+00
      -11   -1    0    0    0    0  0.00000000000E+00  0.00000000000E+00  0.50000000000E+03  0.50000000000E+03  0.00000000000E+00 0.  1.
       11   -1    0    0    0    0 -0.00000000000E+00 -0.00000000000E+00 -0.50000000000E+03  0.50000000000E+03  0.00000000000E+00 0. -1.
  1000024    1    1    2    0    0  0.35383503892E+03  0.21587675978E+03 -0.21366792477E+03  0.50000000000E+03  0.18039957800E+03 0. -1.
 -1000024    1    1    2    0    0 -0.35383503892E+03 -0.21587675978E+03  0.21366792477E+03  0.50000000000E+03  0.18039957800E+03 0.  1.
</event>
<event>
 4   0  0.7366543E-04  0.2236068E+02  0.7957747E-01  0.1516063E+00
      -11   -1    0    0    0    0  0.00000000000E+00  0.00000000000E+00  0.50000000000E+03  0.50000000000E+03  0.00000000000E+00 0.  1.
       11   -1    0    0    0    0 -0.00000000000E+00 -0.00000000000E+00 -0.50000000000E+03  0.50000000000E+03  0.00000000000E+00 0. -1.
  1000024    1    1    2    0    0  0.44534231693E+03  0.10791065446E+03 -0.86495685809E+02  0.50000000000E+03  0.18039957800E+03 0. -1.
 -1000024    1    1    2    0    0 -0.44534231693E+03 -0.10791065446E+03  0.86495685809E+02  0.50000000000E+03  0.18039957800E+03 0.  1.
</event>
<event>
 4   0  0.1092222E-03  0.2236068E+02  0.7957747E-01  0.1516063E+00
      -11   -1    0    0    0    0  0.00000000000E+00  0.00000000000E+00  0.50000000000E+03  0.50000000000E+03  0.00000000000E+00 0.  1.
       11   -1    0    0    0    0 -0.00000000000E+00 -0.00000000000E+00 -0.50000000000E+03  0.50000000000E+03  0.00000000000E+00 0. -1.
  1000024    1    1    2    0    0  0.29037774041E+03 -0.36334803915E+03  0.33391055323E+02  0.50000000000E+03  0.18039957800E+03 0. -1.
 -1000024    1    1    2    0    0 -0.29037774041E+03  0.36334803915E+03 -0.33391055323E+02  0.50000000000E+03  0.18039957800E+03 0.  1.
</event>
<event>
 4   0  0.1092222E-03  0.2236068E+02  0.7957747E-01  0.1516063E+00
      -11   -1    0    0    0    0  0.00000000000E+00  0.00000000000E+00  0.50000000000E+03  0.50000000000E+03  0.00000000000E+00 0.  1.
       11   -1    0    0    0    0 -0.00000000000E+00 -0.00000000000E+00 -0.50000000000E+03  0.50000000000E+03  0.00000000000E+00 0. -1.
  1000024    1    1    2    0    0  0.90653031586E+02  0.37197094704E+03  0.26622478225E+03  0.50000000000E+03  0.18039957800E+03 0.  1.
 -1000024    1    1    2    0    0 -0.90653031586E+02 -0.37197094704E+03 -0.26622478225E+03  0.50000000000E+03  0.18039957800E+03 0. -1.
</event>
<event>
 4   0  0.6712789E-04  0.2236068E+02  0.7957747E-01  0.1516063E+00
      -11   -1    0    0    0    0  0.00000000000E+00  0.00000000000E+00  0.50000000000E+03  0.50000000000E+03  0.00000000000E+00 0.  1.
       11   -1    0    0    0    0 -0.00000000000E+00 -0.00000000000E+00 -0.50000000000E+03  0.50000000000E+03  0.00000000000E+00 0. -1.
  1000024    1    1    2    0    0 -0.35818578050E+03 -0.17475526106E+03  0.24211471999E+03  0.50000000000E+03  0.18039957800E+03 0.  1.
 -1000024    1    1    2    0    0  0.35818578050E+03  0.17475526106E+03 -0.24211471999E+03  0.50000000000E+03  0.18039957800E+03 0. -1.
</event>
<event>
 4   0  0.6712789E-04  0.2236068E+02  0.7957747E-01  0.1516063E+00
      -11   -1    0    0    0    0  0.00000000000E+00  0.00000000000E+00  0.50000000000E+03  0.50000000000E+03  0.00000000000E+00 0.  1.
       11   -1    0    0    0    0 -0.00000000000E+00 -0.00000000000E+00 -0.50000000000E+03  0.50000000000E+03  0.00000000000E+00 0. -1.
  1000024    1    1    2    0    0 -0.10180954117E+03 -0.44759246739E+03  0.82169293040E+02  0.50000000000E+03  0.18039957800E+03 0.  1.
 -1000024    1    1    2    0    0  0.10180954117E+03  0.44759246739E+03 -0.82169293040E+02  0.50000000000E+03  0.18039957800E+03 0. -1.
</event>
<event>
 4   0  0.1092222E-03  0.2236068E+02  0.7957747E-01  0.1516063E+00
      -11   -1    0    0    0    0  0.00000000000E+00  0.00000000000E+00  0.50000000000E+03  0.50000000000E+03  0.00000000000E+00 0.  1.
       11   -1    0    0    0    0 -0.00000000000E+00 -0.00000000000E+00 -0.50000000000E+03  0.50000000000E+03  0.00000000000E+00 0. -1.
  1000024    1    1    2    0    0  0.27094194670E+02 -0.32685839070E+03  0.33148980271E+03  0.50000000000E+03  0.18039957800E+03 0. -1.
 -1000024    1    1    2    0    0 -0.27094194670E+02  0.32685839070E+03 -0.33148980271E+03  0.50000000000E+03  0.18039957800E+03 0.  1.
</event>
<event>
 4   0  0.6712789E-04  0.2236068E+02  0.7957747E-01  0.1516063E+00
      -11   -1    0    0    0    0  0.00000000000E+00  0.00000000000E+00  0.50000000000E+03  0.50000000000E+03  0.00000000000E+00 0.  1.
       11   -1    0    0    0    0 -0.00000000000E+00 -0.00000000000E+00 -0.50000000000E+03  0.50000000000E+03  0.00000000000E+00 0. -1.
  1000024    1    1    2    0    0  0.73088411351E+02 -0.26453634163E+03  0.37700742743E+03  0.50000000000E+03  0.18039957800E+03 0.  1.
 -1000024    1    1    2    0    0 -0.73088411351E+02  0.26453634163E+03 -0.37700742743E+03  0.50000000000E+03  0.18039957800E+03 0. -1.
</event>
<event>
 4   0  0.7366543E-04  0.2236068E+02  0.7957747E-01  0.1516063E+00
      -11   -1    0    0    0    0  0.00000000000E+00  0.00000000000E+00  0.50000000000E+03  0.50000000000E+03  0.00000000000E+00 0.  1.
       11   -1    0    0    0    0 -0.00000000000E+00 -0.00000000000E+00 -0.50000000000E+03  0.50000000000E+03  0.00000000000E+00 0. -1.
  1000024    1    1    2    0    0 -0.39042366243E+03  0.21536273930E+02  0.25408963965E+03  0.50000000000E+03  0.18039957800E+03 0. -1.
 -1000024    1    1    2    0    0  0.39042366243E+03 -0.21536273930E+02 -0.25408963965E+03  0.50000000000E+03  0.18039957800E+03 0.  1.
</event>
<event>
 4   0  0.1092222E-03  0.2236068E+02  0.7957747E-01  0.1516063E+00
      -11   -1    0    0    0    0  0.00000000000E+00  0.00000000000E+00  0.50000000000E+03  0.50000000000E+03  0.00000000000E+00 0.  1.
       11   -1    0    0    0    0 -0.00000000000E+00 -0.00000000000E+00 -0.50000000000E+03  0.50000000000E+03  0.00000000000E+00 0. -1.
  1000024    1    1    2    0    0  0.16223944025E+03  0.29992526653E+03  0.31808676612E+03  0.50000000000E+03  0.18039957800E+03 0.  1.
 -1000024    1    1    2    0    0 -0.16223944025E+03 -0.29992526653E+03 -0.31808676612E+03  0.50000000000E+03  0.18039957800E+03 0. -1.
</event>
<event>
 4   0  0.7366543E-04  0.2236068E+02  0.7957747E-01  0.1516063E+00
      -11   -1    0    0    0    0  0.00000000000E+00  0.00000000000E+00  0.50000000000E+03  0.50000000000E+03  0.00000000000E+00 0.  1.
       11   -1    0    0    0    0 -0.00000000000E+00 -0.00000000000E+00 -0.50000000000E+03  0.50000000000E+03  0.00000000000E+00 0. -1.
  1000024    1    1    2    0    0  0.55205319358E+02  0.30694940113E+03 -0.34668491475E+03  0.50000000000E+03  0.18039957800E+03 0.  1.
 -1000024    1    1    2    0    0 -0.55205319358E+02 -0.30694940113E+03  0.34668491475E+03  0.50000000000E+03  0.18039957800E+03 0. -1.
</event>
<event>
 4   0  0.7366543E-04  0.2236068E+02  0.7957747E-01  0.1516063E+00
      -11   -1    0    0    0    0  0.00000000000E+00  0.00000000000E+00  0.50000000000E+03  0.50000000000E+03  0.00000000000E+00 0.  1.
       11   -1    0    0    0    0 -0.00000000000E+00 -0.00000000000E+00 -0.50000000000E+03  0.50000000000E+03  0.00000000000E+00 0. -1.
  1000024    1    1    2    0    0 -0.60027095935E+02  0.37524894060E+03  0.27026093426E+03  0.50000000000E+03  0.18039957800E+03 0.  1.
 -1000024    1    1    2    0    0  0.60027095935E+02 -0.37524894060E+03 -0.27026093426E+03  0.50000000000E+03  0.18039957800E+03 0. -1.
</event>
<event>
 4   0  0.7366543E-04  0.2236068E+02  0.7957747E-01  0.1516063E+00
      -11   -1    0    0    0    0  0.00000000000E+00  0.00000000000E+00  0.50000000000E+03  0.50000000000E+03  0.00000000000E+00 0.  1.
       11   -1    0    0    0    0 -0.00000000000E+00 -0.00000000000E+00 -0.50000000000E+03  0.50000000000E+03  0.00000000000E+00 0. -1.
  1000024    1    1    2    0    0 -0.13137694219E+03 -0.42742833510E+03 -0.13229175967E+03  0.50000000000E+03  0.18039957800E+03 0. -1.
 -1000024    1    1    2    0    0  0.13137694219E+03  0.42742833510E+03  0.13229175967E+03  0.50000000000E+03  0.18039957800E+03 0.  1.
</event>
<event>
 4   0  0.1092222E-03  0.2236068E+02  0.7957747E-01  0.1516063E+00
      -11   -1    0    0    0    0  0.00000000000E+00  0.00000000000E+00  0.50000000000E+03  0.50000000000E+03  0.00000000000E+00 0.  1.
       11   -1    0    0    0    0 -0.00000000000E+00 -0.00000000000E+00 -0.50000000000E+03  0.50000000000E+03  0.00000000000E+00 0. -1.
  1000024    1    1    2    0    0  0.26725843368E+03  0.37841451469E+03  0.53210684618E+02  0.50000000000E+03  0.18039957800E+03 0.  1.
 -1000024    1    1    2    0    0 -0.26725843368E+03 -0.37841451469E+03 -0.53210684618E+02  0.50000000000E+03  0.18039957800E+03 0. -1.
</event>
<event>
 4   0  0.6712789E-04  0.2236068E+02  0.7957747E-01  0.1516063E+00
      -11   -1    0    0    0    0  0.00000000000E+00  0.00000000000E+00  0.50000000000E+03  0.50000000000E+03  0.00000000000E+00 0.  1.
       11   -1    0    0    0    0 -0.00000000000E+00 -0.00000000000E+00 -0.50000000000E+03  0.50000000000E+03  0.00000000000E+00 0. -1.
  1000024    1    1    2    0    0  0.18148030852E+03 -0.22580802722E+03  0.36541979246E+03  0.50000000000E+03  0.18039957800E+03 0.  1.
 -1000024    1    1    2    0    0 -0.18148030852E+03  0.22580802722E+03 -0.36541979246E+03  0.50000000000E+03  0.18039957800E+03 0. -1.
</event>
<event>
 4   0  0.7366543E-04  0.2236068E+02  0.7957747E-01  0.1516063E+00
      -11   -1    0    0    0    0  0.00000000000E+00  0.00000000000E+00  0.50000000000E+03  0.50000000000E+03  0.00000000000E+00 0.  1.
       11   -1    0    0    0    0 -0.00000000000E+00 -0.00000000000E+00 -0.50000000000E+03  0.50000000000E+03  0.00000000000E+00 0. -1.
  1000024    1    1    2    0    0  0.21043166182E+03 -0.21521813737E+02  0.41558551406E+03  0.50000000000E+03  0.18039957800E+03 0.  1.
 -1000024    1    1    2    0    0 -0.21043166182E+03  0.21521813737E+02 -0.41558551406E+03  0.50000000000E+03  0.18039957800E+03 0.  1.
</event>
<event>
 4   0  0.6712789E-04  0.2236068E+02  0.7957747E-01  0.1516063E+00
      -11   -1    0    0    0    0  0.00000000000E+00  0.00000000000E+00  0.50000000000E+03  0.50000000000E+03  0.00000000000E+00 0.  1.
       11   -1    0    0    0    0 -0.00000000000E+00 -0.00000000000E+00 -0.50000000000E+03  0.50000000000E+03  0.00000000000E+00 0. -1.
  1000024    1    1    2    0    0 -0.24831551351E+03 -0.26553542797E+03  0.29203824151E+03  0.50000000000E+03  0.18039957800E+03 0.  1.
 -1000024    1    1    2    0    0  0.24831551351E+03  0.26553542797E+03 -0.29203824151E+03  0.50000000000E+03  0.18039957800E+03 0. -1.
</event>
<event>
 4   0  0.6712789E-04  0.2236068E+02  0.7957747E-01  0.1516063E+00
      -11   -1    0    0    0    0  0.00000000000E+00  0.00000000000E+00  0.50000000000E+03  0.50000000000E+03  0.00000000000E+00 0.  1.
       11   -1    0    0    0    0 -0.00000000000E+00 -0.00000000000E+00 -0.50000000000E+03  0.50000000000E+03  0.00000000000E+00 0. -1.
  1000024    1    1    2    0    0 -0.73566174251E+02  0.34341994261E+03  0.30676824034E+03  0.50000000000E+03  0.18039957800E+03 0. -1.
 -1000024    1    1    2    0    0  0.73566174251E+02 -0.34341994261E+03 -0.30676824034E+03  0.50000000000E+03  0.18039957800E+03 0.  1.
</event>
<event>
 4   0  0.6712789E-04  0.2236068E+02  0.7957747E-01  0.1516063E+00
      -11   -1    0    0    0    0  0.00000000000E+00  0.00000000000E+00  0.50000000000E+03  0.50000000000E+03  0.00000000000E+00 0.  1.
       11   -1    0    0    0    0 -0.00000000000E+00 -0.00000000000E+00 -0.50000000000E+03  0.50000000000E+03  0.00000000000E+00 0. -1.
  1000024    1    1    2    0    0 -0.13706350265E+03 -0.41786550990E+02  0.44376060286E+03  0.50000000000E+03  0.18039957800E+03 0. -1.
 -1000024    1    1    2    0    0  0.13706350265E+03  0.41786550990E+02 -0.44376060286E+03  0.50000000000E+03  0.18039957800E+03 0. -1.
</event>
<event>
 4   0  0.6712789E-04  0.2236068E+02  0.7957747E-01  0.1516063E+00
      -11   -1    0    0    0    0  0.00000000000E+00  0.00000000000E+00  0.50000000000E+03  0.50000000000E+03  0.00000000000E+00 0.  1.
       11   -1    0    0    0    0 -0.00000000000E+00 -0.00000000000E+00 -0.50000000000E+03  0.50000000000E+03  0.00000000000E+00 0. -1.
  1000024    1    1    2    0    0 -0.42754927315E+03  0.15459329344E+03 -0.10372330937E+03  0.50000000000E+03  0.18039957800E+03 0. -1.
 -1000024    1    1    2    0    0  0.42754927315E+03 -0.15459329344E+03  0.10372330937E+03  0.50000000000E+03  0.18039957800E+03 0.  1.
</event>
<event>
 4   0  0.6712789E-04  0.2236068E+02  0.7957747E-01  0.1516063E+00
      -11   -1    0    0    0    0  0.00000000000E+00  0.00000000000E+00  0.50000000000E+03  0.50000000000E+03  0.00000000000E+00 0.  1.
       11   -1    0    0    0    0 -0.00000000000E+00 -0.00000000000E+00 -0.50000000000E+03  0.50000000000E+03  0.00000000000E+00 0. -1.
  1000024    1    1    2    0    0 -0.39416927673E+03 -0.24912491014E+03 -0.48324613821E+01  0.50000000000E+03  0.18039957800E+03 0.  1.
 -1000024    1    1    2    0    0  0.39416927673E+03  0.24912491014E+03  0.48324613821E+01  0.50000000000E+03  0.18039957800E+03 0. -1.
</event>
<event>
 4   0  0.1092222E-03  0.2236068E+02  0.7957747E-01  0.1516063E+00
      -11   -1    0    0    0    0  0.00000000000E+00  0.00000000000E+00  0.50000000000E+03  0.50000000000E+03  0.00000000000E+00 0.  1.
       11   -1    0    0    0    0 -0.00000000000E+00 -0.00000000000E+00 -0.50000000000E+03  0.50000000000E+03  0.00000000000E+00 0. -1.
  1000024    1    1    2    0    0 -0.19774644620E+03  0.14147978620E+03  0.39791431913E+03  0.50000000000E+03  0.18039957800E+03 0.  1.
 -1000024    1    1    2    0    0  0.19774644620E+03 -0.14147978620E+03 -0.39791431913E+03  0.50000000000E+03  0.18039957800E+03 0. -1.
</event>
<event>
 4   0  0.7366543E-04  0.2236068E+02  0.7957747E-01  0.1516063E+00
      -11   -1    0    0    0    0  0.00000000000E+00  0.00000000000E+00  0.50000000000E+03  0.50000000000E+03  0.00000000000E+00 0.  1.
       11   -1    0    0    0    0 -0.00000000000E+00 -0.00000000000E+00 -0.50000000000E+03  0.50000000000E+03  0.00000000000E+00 0. -1.
  1000024    1    1    2    0    0  0.23144933751E+03  0.15588071759E+03  0.37361530791E+03  0.50000000000E+03  0.18039957800E+03 0.  1.
 -1000024    1    1    2    0    0 -0.23144933751E+03 -0.15588071759E+03 -0.37361530791E+03  0.50000000000E+03  0.18039957800E+03 0. -1.
</event>
<event>
 4   0  0.1092222E-03  0.2236068E+02  0.7957747E-01  0.1516063E+00
      -11   -1    0    0    0    0  0.00000000000E+00  0.00000000000E+00  0.50000000000E+03  0.50000000000E+03  0.00000000000E+00 0.  1.
       11   -1    0    0    0    0 -0.00000000000E+00 -0.00000000000E+00 -0.50000000000E+03  0.50000000000E+03  0.00000000000E+00 0. -1.
  1000024    1    1    2    0    0  0.99495912392E+02 -0.18995806537E+03  0.41409236781E+03  0.50000000000E+03  0.18039957800E+03 0.  1.
 -1000024    1    1    2    0    0 -0.99495912392E+02  0.18995806537E+03 -0.41409236781E+03  0.50000000000E+03  0.18039957800E+03 0.  1.
</event>
<event>
 4   0  0.6712789E-04  0.2236068E+02  0.7957747E-01  0.1516063E+00
      -11   -1    0    0    0    0  0.00000000000E+00  0.00000000000E+00  0.50000000000E+03  0.50000000000E+03  0.00000000000E+00 0.  1.
       11   -1    0    0    0    0 -0.00000000000E+00 -0.00000000000E+00 -0.50000000000E+03  0.50000000000E+03  0.00000000000E+00 0. -1.
  1000024    1    1    2    0    0  0.31733344789E+03  0.25522020672E+03  0.22719621737E+03  0.50000000000E+03  0.18039957800E+03 0. -1.
 -1000024    1    1    2    0    0 -0.31733344789E+03 -0.25522020672E+03 -0.22719621737E+03  0.50000000000E+03  0.18039957800E+03 0.  1.
</event>
<event>
 4   0  0.7366543E-04  0.2236068E+02  0.7957747E-01  0.1516063E+00
      -11   -1    0    0    0    0  0.00000000000E+00  0.00000000000E+00  0.50000000000E+03  0.50000000000E+03  0.00000000000E+00 0.  1.
       11   -1    0    0    0    0 -0.00000000000E+00 -0.00000000000E+00 -0.50000000000E+03  0.50000000000E+03  0.00000000000E+00 0. -1.
  1000024    1    1    2    0    0  0.16530135193E+03 -0.28210280226E+03  0.33248979573E+03  0.50000000000E+03  0.18039957800E+03 0.  1.
 -1000024    1    1    2    0    0 -0.16530135193E+03  0.28210280226E+03 -0.33248979573E+03  0.50000000000E+03  0.18039957800E+03 0. -1.
</event>
<event>
 4   0  0.7366543E-04  0.2236068E+02  0.7957747E-01  0.1516063E+00
      -11   -1    0    0    0    0  0.00000000000E+00  0.00000000000E+00  0.50000000000E+03  0.50000000000E+03  0.00000000000E+00 0.  1.
       11   -1    0    0    0    0 -0.00000000000E+00 -0.00000000000E+00 -0.50000000000E+03  0.50000000000E+03  0.00000000000E+00 0. -1.
  1000024    1    1    2    0    0  0.32166646597E+03  0.10920410470E+03  0.31947009319E+03  0.50000000000E+03  0.18039957800E+03 0. -1.
 -1000024    1    1    2    0    0 -0.32166646597E+03 -0.10920410470E+03 -0.31947009319E+03  0.50000000000E+03  0.18039957800E+03 0.  1.
</event>
<event>
 4   0  0.1092222E-03  0.2236068E+02  0.7957747E-01  0.1516063E+00
      -11   -1    0    0    0    0  0.00000000000E+00  0.00000000000E+00  0.50000000000E+03  0.50000000000E+03  0.00000000000E+00 0.  1.
       11   -1    0    0    0    0 -0.00000000000E+00 -0.00000000000E+00 -0.50000000000E+03  0.50000000000E+03  0.00000000000E+00 0. -1.
  1000024    1    1    2    0    0 -0.40075623142E+03  0.52415892526E+02  0.23260053621E+03  0.50000000000E+03  0.18039957800E+03 0.  1.
 -1000024    1    1    2    0    0  0.40075623142E+03 -0.52415892526E+02 -0.23260053621E+03  0.50000000000E+03  0.18039957800E+03 0. -1.
</event>
<event>
 4   0  0.6712789E-04  0.2236068E+02  0.7957747E-01  0.1516063E+00
      -11   -1    0    0    0    0  0.00000000000E+00  0.00000000000E+00  0.50000000000E+03  0.50000000000E+03  0.00000000000E+00 0.  1.
       11   -1    0    0    0    0 -0.00000000000E+00 -0.00000000000E+00 -0.50000000000E+03  0.50000000000E+03  0.00000000000E+00 0. -1.
  1000024    1    1    2    0    0 -0.30667533183E+03 -0.23339998007E+03  0.26254653379E+03  0.50000000000E+03  0.18039957800E+03 0.  1.
 -1000024    1    1    2    0    0  0.30667533183E+03  0.23339998007E+03 -0.26254653379E+03  0.50000000000E+03  0.18039957800E+03 0. -1.
</event>
<event>
 4   0  0.6712789E-04  0.2236068E+02  0.7957747E-01  0.1516063E+00
      -11   -1    0    0    0    0  0.00000000000E+00  0.00000000000E+00  0.50000000000E+03  0.50000000000E+03  0.00000000000E+00 0.  1.
       11   -1    0    0    0    0 -0.00000000000E+00 -0.00000000000E+00 -0.50000000000E+03  0.50000000000E+03  0.00000000000E+00 0. -1.
  1000024    1    1    2    0    0 -0.38762651213E+03 -0.21095754881E+03  0.15066051888E+03  0.50000000000E+03  0.18039957800E+03 0.  1.
 -1000024    1    1    2    0    0  0.38762651213E+03  0.21095754881E+03 -0.15066051888E+03  0.50000000000E+03  0.18039957800E+03 0. -1.
</event>
<event>
 4   0  0.1092222E-03  0.2236068E+02  0.7957747E-01  0.1516063E+00
      -11   -1    0    0    0    0  0.00000000000E+00  0.00000000000E+00  0.50000000000E+03  0.50000000000E+03  0.00000000000E+00 0.  1.
       11   -1    0    0    0    0 -0.00000000000E+00 -0.00000000000E+00 -0.50000000000E+03  0.50000000000E+03  0.00000000000E+00 0. -1.
  1000024    1    1    2    0    0 -0.45549022766E+03  0.94503061659E+02 -0.32462533859E+02  0.50000000000E+03  0.18039957800E+03 0. -1.
 -1000024    1    1    2    0    0  0.45549022766E+03 -0.94503061659E+02  0.32462533859E+02  0.50000000000E+03  0.18039957800E+03 0.  1.
</event>
<event>
 4   0  0.1092222E-03  0.2236068E+02  0.7957747E-01  0.1516063E+00
      -11   -1    0    0    0    0  0.00000000000E+00  0.00000000000E+00  0.50000000000E+03  0.50000000000E+03  0.00000000000E+00 0.  1.
       11   -1    0    0    0    0 -0.00000000000E+00 -0.00000000000E+00 -0.50000000000E+03  0.50000000000E+03  0.00000000000E+00 0. -1.
  1000024    1    1    2    0    0  0.21057277085E+03  0.21779144779E+03  0.35451655208E+03  0.50000000000E+03  0.18039957800E+03 0.  1.
 -1000024    1    1    2    0    0 -0.21057277085E+03 -0.21779144779E+03 -0.35451655208E+03  0.50000000000E+03  0.18039957800E+03 0.  1.
</event>
<event>
 4   0  0.6712789E-04  0.2236068E+02  0.7957747E-01  0.1516063E+00
      -11   -1    0    0    0    0  0.00000000000E+00  0.00000000000E+00  0.50000000000E+03  0.50000000000E+03  0.00000000000E+00 0.  1.
       11   -1    0    0    0    0 -0.00000000000E+00 -0.00000000000E+00 -0.50000000000E+03  0.50000000000E+03  0.00000000000E+00 0. -1.
  1000024    1    1    2    0    0  0.28128220947E+03 -0.29319217794E+02  0.37077849770E+03  0.50000000000E+03  0.18039957800E+03 0.  1.
 -1000024    1    1    2    0    0 -0.28128220947E+03  0.29319217794E+02 -0.37077849770E+03  0.50000000000E+03  0.18039957800E+03 0.  1.
</event>
<event>
 4   0  0.6712789E-04  0.2236068E+02  0.7957747E-01  0.1516063E+00
      -11   -1    0    0    0    0  0.00000000000E+00  0.00000000000E+00  0.50000000000E+03  0.50000000000E+03  0.00000000000E+00 0.  1.
       11   -1    0    0    0    0 -0.00000000000E+00 -0.00000000000E+00 -0.50000000000E+03  0.50000000000E+03  0.00000000000E+00 0. -1.
  1000024    1    1    2    0    0  0.12994718375E+03 -0.31992584972E+03  0.31339619074E+03  0.50000000000E+03  0.18039957800E+03 0.  1.
 -1000024    1    1    2    0    0 -0.12994718375E+03  0.31992584972E+03 -0.31339619074E+03  0.50000000000E+03  0.18039957800E+03 0. -1.
</event>
<event>
 4   0  0.7366543E-04  0.2236068E+02  0.7957747E-01  0.1516063E+00
      -11   -1    0    0    0    0  0.00000000000E+00  0.00000000000E+00  0.50000000000E+03  0.50000000000E+03  0.00000000000E+00 0.  1.
       11   -1    0    0    0    0 -0.00000000000E+00 -0.00000000000E+00 -0.50000000000E+03  0.50000000000E+03  0.00000000000E+00 0. -1.
  1000024    1    1    2    0    0 -0.35141461817E+03  0.15883770923E+03  0.26217234888E+03  0.50000000000E+03  0.18039957800E+03 0. -1.
 -1000024    1    1    2    0    0  0.35141461817E+03 -0.15883770923E+03 -0.26217234888E+03  0.50000000000E+03  0.18039957800E+03 0.  1.
</event>
<event>
 4   0  0.6712789E-04  0.2236068E+02  0.7957747E-01  0.1516063E+00
      -11   -1    0    0    0    0  0.00000000000E+00  0.00000000000E+00  0.50000000000E+03  0.50000000000E+03  0.00000000000E+00 0.  1.
       11   -1    0    0    0    0 -0.00000000000E+00 -0.00000000000E+00 -0.50000000000E+03  0.50000000000E+03  0.00000000000E+00 0. -1.
  1000024    1    1    2    0    0 -0.25588014590E+03 -0.81242820386E+02  0.38128853553E+03  0.50000000000E+03  0.18039957800E+03 0. -1.
 -1000024    1    1    2    0    0  0.25588014590E+03  0.81242820386E+02 -0.38128853553E+03  0.50000000000E+03  0.18039957800E+03 0.  1.
</event>
<event>
 4   0  0.1092222E-03  0.2236068E+02  0.7957747E-01  0.1516063E+00
      -11   -1    0    0    0    0  0.00000000000E+00  0.00000000000E+00  0.50000000000E+03  0.50000000000E+03  0.00000000000E+00 0.  1.
       11   -1    0    0    0    0 -0.00000000000E+00 -0.00000000000E+00 -0.50000000000E+03  0.50000000000E+03  0.00000000000E+00 0. -1.
  1000024    1    1    2    0    0 -0.47432435076E+02  0.38401263194E+03  0.26026996537E+03  0.50000000000E+03  0.18039957800E+03 0. -1.
 -1000024    1    1    2    0    0  0.47432435076E+02 -0.38401263194E+03 -0.26026996537E+03  0.50000000000E+03  0.18039957800E+03 0.  1.
</event>
<event>
 4   0  0.7366543E-04  0.2236068E+02  0.7957747E-01  0.1516063E+00
      -11   -1    0    0    0    0  0.00000000000E+00  0.00000000000E+00  0.50000000000E+03  0.50000000000E+03  0.00000000000E+00 0.  1.
       11   -1    0    0    0    0 -0.00000000000E+00 -0.00000000000E+00 -0.50000000000E+03  0.50000000000E+03  0.00000000000E+00 0. -1.
  1000024    1    1    2    0    0  0.12930662224E+03  0.28461405639E+03  0.34602113896E+03  0.50000000000E+03  0.18039957800E+03 0. -1.
 -1000024    1    1    2    0    0 -0.12930662224E+03 -0.28461405639E+03 -0.34602113896E+03  0.50000000000E+03  0.18039957800E+03 0.  1.
</event>
<event>
 4   0  0.1092222E-03  0.2236068E+02  0.7957747E-01  0.1516063E+00
      -11   -1    0    0    0    0  0.00000000000E+00  0.00000000000E+00  0.50000000000E+03  0.50000000000E+03  0.00000000000E+00 0.  1.
       11   -1    0    0    0    0 -0.00000000000E+00 -0.00000000000E+00 -0.50000000000E+03  0.50000000000E+03  0.00000000000E+00 0. -1.
  1000024    1    1    2    0    0 -0.18827289214E+03  0.77393045726E+02  0.41954693041E+03  0.50000000000E+03  0.18039957800E+03 0.  1.
 -1000024    1    1    2    0    0  0.18827289214E+03 -0.77393045726E+02 -0.41954693041E+03  0.50000000000E+03  0.18039957800E+03 0. -1.
</event>
<event>
 4   0  0.1092222E-03  0.2236068E+02  0.7957747E-01  0.1516063E+00
      -11   -1    0    0    0    0  0.00000000000E+00  0.00000000000E+00  0.50000000000E+03  0.50000000000E+03  0.00000000000E+00 0.  1.
       11   -1    0    0    0    0 -0.00000000000E+00 -0.00000000000E+00 -0.50000000000E+03  0.50000000000E+03  0.00000000000E+00 0. -1.
  1000024    1    1    2    0    0 -0.11027594398E+03 -0.42906294030E+03  0.14560289043E+03  0.50000000000E+03  0.18039957800E+03 0.  1.
 -1000024    1    1    2    0    0  0.11027594398E+03  0.42906294030E+03 -0.14560289043E+03  0.50000000000E+03  0.18039957800E+03 0. -1.
</event>
<event>
 4   0  0.1092222E-03  0.2236068E+02  0.7957747E-01  0.1516063E+00
      -11   -1    0    0    0    0  0.00000000000E+00  0.00000000000E+00  0.50000000000E+03  0.50000000000E+03  0.00000000000E+00 0.  1.
       11   -1    0    0    0    0 -0.00000000000E+00 -0.00000000000E+00 -0.50000000000E+03  0.50000000000E+03  0.00000000000E+00 0. -1.
  1000024    1    1    2    0    0  0.22509890379E+03 -0.17469480778E+03  0.36914522874E+03  0.50000000000E+03  0.18039957800E+03 0. -1.
 -1000024    1    1    2    0    0 -0.22509890379E+03  0.17469480778E+03 -0.36914522874E+03  0.50000000000E+03  0.18039957800E+03 0.  1.
</event>
<event>
 4   0  0.1092222E-03  0.2236068E+02  0.7957747E-01  0.1516063E+00
      -11   -1    0    0    0    0  0.00000000000E+00  0.00000000000E+00  0.50000000000E+03  0.50000000000E+03  0.00000000000E+00 0.  1.
       11   -1    0    0    0    0 -0.00000000000E+00 -0.00000000000E+00 -0.50000000000E+03  0.50000000000E+03  0.00000000000E+00 0. -1.
  1000024    1    1    2    0    0 -0.43272040092E+03  0.14613279760E+03  0.94097036881E+02  0.50000000000E+03  0.18039957800E+03 0.  1.
 -1000024    1    1    2    0    0  0.43272040092E+03 -0.14613279760E+03 -0.94097036881E+02  0.50000000000E+03  0.18039957800E+03 0. -1.
</event>
<event>
 4   0  0.6712789E-04  0.2236068E+02  0.7957747E-01  0.1516063E+00
      -11   -1    0    0    0    0  0.00000000000E+00  0.00000000000E+00  0.50000000000E+03  0.50000000000E+03  0.00000000000E+00 0.  1.
       11   -1    0    0    0    0 -0.00000000000E+00 -0.00000000000E+00 -0.50000000000E+03  0.50000000000E+03  0.00000000000E+00 0. -1.
  1000024    1    1    2    0    0 -0.89913328376E+01  0.13310280131E+03  0.44683195105E+03  0.50000000000E+03  0.18039957800E+03 0. -1.
 -1000024    1    1    2    0    0  0.89913328376E+01 -0.13310280131E+03 -0.44683195105E+03  0.50000000000E+03  0.18039957800E+03 0. -1.
</event>
<event>
 4   0  0.6712789E-04  0.2236068E+02  0.7957747E-01  0.1516063E+00
      -11   -1    0    0    0    0  0.00000000000E+00  0.00000000000E+00  0.50000000000E+03  0.50000000000E+03  0.00000000000E+00 0.  1.
       11   -1    0    0    0    0 -0.00000000000E+00 -0.00000000000E+00 -0.50000000000E+03  0.50000000000E+03  0.00000000000E+00 0. -1.
  1000024    1    1    2    0    0 -0.18431520336E+03 -0.19244839292E+03  0.38268461444E+03  0.50000000000E+03  0.18039957800E+03 0. -1.
 -1000024    1    1    2    0    0  0.18431520336E+03  0.19244839292E+03 -0.38268461444E+03  0.50000000000E+03  0.18039957800E+03 0. -1.
</event>
<event>
 4   0  0.7366543E-04  0.2236068E+02  0.7957747E-01  0.1516063E+00
      -11   -1    0    0    0    0  0.00000000000E+00  0.00000000000E+00  0.50000000000E+03  0.50000000000E+03  0.00000000000E+00 0.  1.
       11   -1    0    0    0    0 -0.00000000000E+00 -0.00000000000E+00 -0.50000000000E+03  0.50000000000E+03  0.00000000000E+00 0. -1.
  1000024    1    1    2    0    0 -0.13188719423E+03 -0.42934165828E+03 -0.12540933266E+03  0.50000000000E+03  0.18039957800E+03 0. -1.
 -1000024    1    1    2    0    0  0.13188719423E+03  0.42934165828E+03  0.12540933266E+03  0.50000000000E+03  0.18039957800E+03 0.  1.
</event>
<event>
 4   0  0.1092222E-03  0.2236068E+02  0.7957747E-01  0.1516063E+00
      -11   -1    0    0    0    0  0.00000000000E+00  0.00000000000E+00  0.50000000000E+03  0.50000000000E+03  0.00000000000E+00 0.  1.
       11   -1    0    0    0    0 -0.00000000000E+00 -0.00000000000E+00 -0.50000000000E+03  0.50000000000E+03  0.00000000000E+00 0. -1.
  1000024    1    1    2    0    0  0.67110774689E+02 -0.92196311258E+02  0.45216366104E+03  0.50000000000E+03  0.18039957800E+03 0.  1.
 -1000024    1    1    2    0    0 -0.67110774689E+02  0.92196311258E+02 -0.45216366104E+03  0.50000000000E+03  0.18039957800E+03 0.  1.
</event>
<event>
 4   0  0.6712789E-04  0.2236068E+02  0.7957747E-01  0.1516063E+00
      -11   -1    0    0    0    0  0.00000000000E+00  0.00000000000E+00  0.50000000000E+03  0.50000000000E+03  0.00000000000E+00 0.  1.
       11   -1    0    0    0    0 -0.00000000000E+00 -0.00000000000E+00 -0.50000000000E+03  0.50000000000E+03  0.00000000000E+00 0. -1.
  1000024    1    1    2    0    0  0.28221306361E+03  0.25315661417E+03  0.27152073160E+03  0.50000000000E+03  0.18039957800E+03 0. -1.
 -1000024    1    1    2    0    0 -0.28221306361E+03 -0.25315661417E+03 -0.27152073160E+03  0.50000000000E+03  0.18039957800E+03 0.  1.
</event>
<event>
 4   0  0.1092222E-03  0.2236068E+02  0.7957747E-01  0.1516063E+00
      -11   -1    0    0    0    0  0.00000000000E+00  0.00000000000E+00  0.50000000000E+03  0.50000000000E+03  0.00000000000E+00 0.  1.
       11   -1    0    0    0    0 -0.00000000000E+00 -0.00000000000E+00 -0.50000000000E+03  0.50000000000E+03  0.00000000000E+00 0. -1.
  1000024    1    1    2    0    0 -0.99459012109E+02 -0.26708411719E+03  0.36909344550E+03  0.50000000000E+03  0.18039957800E+03 0.  1.
 -1000024    1    1    2    0    0  0.99459012109E+02  0.26708411719E+03 -0.36909344550E+03  0.50000000000E+03  0.18039957800E+03 0. -1.
</event>
<event>
 4   0  0.1092222E-03  0.2236068E+02  0.7957747E-01  0.1516063E+00
      -11   -1    0    0    0    0  0.00000000000E+00  0.00000000000E+00  0.50000000000E+03  0.50000000000E+03  0.00000000000E+00 0.  1.
       11   -1    0    0    0    0 -0.00000000000E+00 -0.00000000000E+00 -0.50000000000E+03  0.50000000000E+03  0.00000000000E+00 0. -1.
  1000024    1    1    2    0    0  0.10911485232E+03  0.30265615631E+03  0.33756361224E+03  0.50000000000E+03  0.18039957800E+03 0. -1.
 -1000024    1    1    2    0    0 -0.10911485232E+03 -0.30265615631E+03 -0.33756361224E+03  0.50000000000E+03  0.18039957800E+03 0. -1.
</event>
<event>
 4   0  0.6712789E-04  0.2236068E+02  0.7957747E-01  0.1516063E+00
      -11   -1    0    0    0    0  0.00000000000E+00  0.00000000000E+00  0.50000000000E+03  0.50000000000E+03  0.00000000000E+00 0.  1.
       11   -1    0    0    0    0 -0.00000000000E+00 -0.00000000000E+00 -0.50000000000E+03  0.50000000000E+03  0.00000000000E+00 0. -1.
  1000024    1    1    2    0    0  0.22626992748E+03 -0.11573588314E+03  0.39097713172E+03  0.50000000000E+03  0.18039957800E+03 0.  1.
 -1000024    1    1    2    0    0 -0.22626992748E+03  0.11573588314E+03 -0.39097713172E+03  0.50000000000E+03  0.18039957800E+03 0. -1.
</event>
<event>
 4   0  0.6712789E-04  0.2236068E+02  0.7957747E-01  0.1516063E+00
      -11   -1    0    0    0    0  0.00000000000E+00  0.00000000000E+00  0.50000000000E+03  0.50000000000E+03  0.00000000000E+00 0.  1.
       11   -1    0    0    0    0 -0.00000000000E+00 -0.00000000000E+00 -0.50000000000E+03  0.50000000000E+03  0.00000000000E+00 0. -1.
  1000024    1    1    2    0    0 -0.80616393731E+02  0.26721748243E+03  0.37356633468E+03  0.50000000000E+03  0.18039957800E+03 0. -1.
 -1000024    1    1    2    0    0  0.80616393731E+02 -0.26721748243E+03 -0.37356633468E+03  0.50000000000E+03  0.18039957800E+03 0. -1.
</event>
<event>
 4   0  0.1092222E-03  0.2236068E+02  0.7957747E-01  0.1516063E+00
      -11   -1    0    0    0    0  0.00000000000E+00  0.00000000000E+00  0.50000000000E+03  0.50000000000E+03  0.00000000000E+00 0.  1.
       11   -1    0    0    0    0 -0.00000000000E+00 -0.00000000000E+00 -0.50000000000E+03  0.50000000000E+03  0.00000000000E+00 0. -1.
  1000024    1    1    2    0    0  0.13872404706E+03  0.11858491872E+03  0.42912614471E+03  0.50000000000E+03  0.18039957800E+03 0.  1.
 -1000024    1    1    2    0    0 -0.13872404706E+03 -0.11858491872E+03 -0.42912614471E+03  0.50000000000E+03  0.18039957800E+03 0. -1.
</event>
<event>
 4   0  0.1092222E-03  0.2236068E+02  0.7957747E-01  0.1516063E+00
      -11   -1    0    0    0    0  0.00000000000E+00  0.00000000000E+00  0.50000000000E+03  0.50000000000E+03  0.00000000000E+00 0.  1.
       11   -1    0    0    0    0 -0.00000000000E+00 -0.00000000000E+00 -0.50000000000E+03  0.50000000000E+03  0.00000000000E+00 0. -1.
  1000024    1    1    2    0    0 -0.29925150847E+03  0.21864161411E+03  0.28302009030E+03  0.50000000000E+03  0.18039957800E+03 0. -1.
 -1000024    1    1    2    0    0  0.29925150847E+03 -0.21864161411E+03 -0.28302009030E+03  0.50000000000E+03  0.18039957800E+03 0.  1.
</event>
<event>
 4   0  0.1092222E-03  0.2236068E+02  0.7957747E-01  0.1516063E+00
      -11   -1    0    0    0    0  0.00000000000E+00  0.00000000000E+00  0.50000000000E+03  0.50000000000E+03  0.00000000000E+00 0.  1.
       11   -1    0    0    0    0 -0.00000000000E+00 -0.00000000000E+00 -0.50000000000E+03  0.50000000000E+03  0.00000000000E+00 0. -1.
  1000024    1    1    2    0    0  0.28348725084E+03  0.30477871086E+03  0.21024012052E+03  0.50000000000E+03  0.18039957800E+03 0. -1.
 -1000024    1    1    2    0    0 -0.28348725084E+03 -0.30477871086E+03 -0.21024012052E+03  0.50000000000E+03  0.18039957800E+03 0.  1.
</event>
<event>
 4   0  0.1092222E-03  0.2236068E+02  0.7957747E-01  0.1516063E+00
      -11   -1    0    0    0    0  0.00000000000E+00  0.00000000000E+00  0.50000000000E+03  0.50000000000E+03  0.00000000000E+00 0.  1.
       11   -1    0    0    0    0 -0.00000000000E+00 -0.00000000000E+00 -0.50000000000E+03  0.50000000000E+03  0.00000000000E+00 0. -1.
  1000024    1    1    2    0    0 -0.24162118317E+03  0.92505813063E+02  0.38796632670E+03  0.50000000000E+03  0.18039957800E+03 0. -1.
 -1000024    1    1    2    0    0  0.24162118317E+03 -0.92505813063E+02 -0.38796632670E+03  0.50000000000E+03  0.18039957800E+03 0.  1.
</event>
<event>
 4   0  0.6712789E-04  0.2236068E+02  0.7957747E-01  0.1516063E+00
      -11   -1    0    0    0    0  0.00000000000E+00  0.00000000000E+00  0.50000000000E+03  0.50000000000E+03  0.00000000000E+00 0.  1.
       11   -1    0    0    0    0 -0.00000000000E+00 -0.00000000000E+00 -0.50000000000E+03  0.50000000000E+03  0.00000000000E+00 0. -1.
  1000024    1    1    2    0    0 -0.17525493295E+03  0.28205867859E+03  0.32739059633E+03  0.50000000000E+03  0.18039957800E+03 0. -1.
 -1000024    1    1    2    0    0  0.17525493295E+03 -0.28205867859E+03 -0.32739059633E+03  0.50000000000E+03  0.18039957800E+03 0.  1.
</event>
<event>
 4   0  0.1092222E-03  0.2236068E+02  0.7957747E-01  0.1516063E+00
      -11   -1    0    0    0    0  0.00000000000E+00  0.00000000000E+00  0.50000000000E+03  0.50000000000E+03  0.00000000000E+00 0.  1.
       11   -1    0    0    0    0 -0.00000000000E+00 -0.00000000000E+00 -0.50000000000E+03  0.50000000000E+03  0.00000000000E+00 0. -1.
  1000024    1    1    2    0    0  0.38125207130E+03  0.18355008836E+03  0.19599034530E+03  0.50000000000E+03  0.18039957800E+03 0. -1.
 -1000024    1    1    2    0    0 -0.38125207130E+03 -0.18355008836E+03 -0.19599034530E+03  0.50000000000E+03  0.18039957800E+03 0.  1.
</event>
<event>
 4   0  0.6712789E-04  0.2236068E+02  0.7957747E-01  0.1516063E+00
      -11   -1    0    0    0    0  0.00000000000E+00  0.00000000000E+00  0.50000000000E+03  0.50000000000E+03  0.00000000000E+00 0.  1.
       11   -1    0    0    0    0 -0.00000000000E+00 -0.00000000000E+00 -0.50000000000E+03  0.50000000000E+03  0.00000000000E+00 0. -1.
  1000024    1    1    2    0    0 -0.45302486887E+03  0.21838637996E+02  0.10838604305E+03  0.50000000000E+03  0.18039957800E+03 0.  1.
 -1000024    1    1    2    0    0  0.45302486887E+03 -0.21838637996E+02 -0.10838604305E+03  0.50000000000E+03  0.18039957800E+03 0. -1.
</event>
<event>
 4   0  0.7366543E-04  0.2236068E+02  0.7957747E-01  0.1516063E+00
      -11   -1    0    0    0    0  0.00000000000E+00  0.00000000000E+00  0.50000000000E+03  0.50000000000E+03  0.00000000000E+00 0.  1.
       11   -1    0    0    0    0 -0.00000000000E+00 -0.00000000000E+00 -0.50000000000E+03  0.50000000000E+03  0.00000000000E+00 0. -1.
  1000024    1    1    2    0    0  0.39231008335E+03 -0.34979591083E+02 -0.24965019320E+03  0.50000000000E+03  0.18039957800E+03 0. -1.
 -1000024    1    1    2    0    0 -0.39231008335E+03  0.34979591083E+02  0.24965019320E+03  0.50000000000E+03  0.18039957800E+03 0.  1.
</event>
<event>
 4   0  0.1092222E-03  0.2236068E+02  0.7957747E-01  0.1516063E+00
      -11   -1    0    0    0    0  0.00000000000E+00  0.00000000000E+00  0.50000000000E+03  0.50000000000E+03  0.00000000000E+00 0.  1.
       11   -1    0    0    0    0 -0.00000000000E+00 -0.00000000000E+00 -0.50000000000E+03  0.50000000000E+03  0.00000000000E+00 0. -1.
  1000024    1    1    2    0    0  0.14175125162E+03 -0.43767894132E+03  0.76155887775E+02  0.50000000000E+03  0.18039957800E+03 0.  1.
 -1000024    1    1    2    0    0 -0.14175125162E+03  0.43767894132E+03 -0.76155887775E+02  0.50000000000E+03  0.18039957800E+03 0. -1.
</event>
<event>
 4   0  0.1092222E-03  0.2236068E+02  0.7957747E-01  0.1516063E+00
      -11   -1    0    0    0    0  0.00000000000E+00  0.00000000000E+00  0.50000000000E+03  0.50000000000E+03  0.00000000000E+00 0.  1.
       11   -1    0    0    0    0 -0.00000000000E+00 -0.00000000000E+00 -0.50000000000E+03  0.50000000000E+03  0.00000000000E+00 0. -1.
  1000024    1    1    2    0    0  0.10553847122E+03  0.36357624825E+03  0.27226813082E+03  0.50000000000E+03  0.18039957800E+03 0. -1.
 -1000024    1    1    2    0    0 -0.10553847122E+03 -0.36357624825E+03 -0.27226813082E+03  0.50000000000E+03  0.18039957800E+03 0.  1.
</event>
<event>
 4   0  0.1092222E-03  0.2236068E+02  0.7957747E-01  0.1516063E+00
      -11   -1    0    0    0    0  0.00000000000E+00  0.00000000000E+00  0.50000000000E+03  0.50000000000E+03  0.00000000000E+00 0.  1.
       11   -1    0    0    0    0 -0.00000000000E+00 -0.00000000000E+00 -0.50000000000E+03  0.50000000000E+03  0.00000000000E+00 0. -1.
  1000024    1    1    2    0    0 -0.82920448481E+02 -0.28686422522E+03  0.35817468890E+03  0.50000000000E+03  0.18039957800E+03 0. -1.
 -1000024    1    1    2    0    0  0.82920448481E+02  0.28686422522E+03 -0.35817468890E+03  0.50000000000E+03  0.18039957800E+03 0.  1.
</event>
<event>
 4   0  0.1092222E-03  0.2236068E+02  0.7957747E-01  0.1516063E+00
      -11   -1    0    0    0    0  0.00000000000E+00  0.00000000000E+00  0.50000000000E+03  0.50000000000E+03  0.00000000000E+00 0.  1.
       11   -1    0    0    0    0 -0.00000000000E+00 -0.00000000000E+00 -0.50000000000E+03  0.50000000000E+03  0.00000000000E+00 0. -1.
  1000024    1    1    2    0    0  0.44620544537E+03  0.43857976581E+02 -0.12819192905E+03  0.50000000000E+03  0.18039957800E+03 0. -1.
 -1000024    1    1    2    0    0 -0.44620544537E+03 -0.43857976581E+02  0.12819192905E+03  0.50000000000E+03  0.18039957800E+03 0.  1.
</event>
<event>
 4   0  0.7366543E-04  0.2236068E+02  0.7957747E-01  0.1516063E+00
      -11   -1    0    0    0    0  0.00000000000E+00  0.00000000000E+00  0.50000000000E+03  0.50000000000E+03  0.00000000000E+00 0.  1.
       11   -1    0    0    0    0 -0.00000000000E+00 -0.00000000000E+00 -0.50000000000E+03  0.50000000000E+03  0.00000000000E+00 0. -1.
  1000024    1    1    2    0    0 -0.89585369005E+02  0.25078149417E+03  0.38280425298E+03  0.50000000000E+03  0.18039957800E+03 0.  1.
 -1000024    1    1    2    0    0  0.89585369005E+02 -0.25078149417E+03 -0.38280425298E+03  0.50000000000E+03  0.18039957800E+03 0. -1.
</event>
<event>
 4   0  0.7366543E-04  0.2236068E+02  0.7957747E-01  0.1516063E+00
      -11   -1    0    0    0    0  0.00000000000E+00  0.00000000000E+00  0.50000000000E+03  0.50000000000E+03  0.00000000000E+00 0.  1.
       11   -1    0    0    0    0 -0.00000000000E+00 -0.00000000000E+00 -0.50000000000E+03  0.50000000000E+03  0.00000000000E+00 0. -1.
  1000024    1    1    2    0    0  0.26126701684E+03 -0.33678872213E+03  0.18912666342E+03  0.50000000000E+03  0.18039957800E+03 0.  1.
 -1000024    1    1    2    0    0 -0.26126701684E+03  0.33678872213E+03 -0.18912666342E+03  0.50000000000E+03  0.18039957800E+03 0. -1.
</event>
<event>
 4   0  0.1092222E-03  0.2236068E+02  0.7957747E-01  0.1516063E+00
      -11   -1    0    0    0    0  0.00000000000E+00  0.00000000000E+00  0.50000000000E+03  0.50000000000E+03  0.00000000000E+00 0.  1.
       11   -1    0    0    0    0 -0.00000000000E+00 -0.00000000000E+00 -0.50000000000E+03  0.50000000000E+03  0.00000000000E+00 0. -1.
  1000024    1    1    2    0    0  0.14446832286E+03 -0.42908887594E+03  0.11165855316E+03  0.50000000000E+03  0.18039957800E+03 0.  1.
 -1000024    1    1    2    0    0 -0.14446832286E+03  0.42908887594E+03 -0.11165855316E+03  0.50000000000E+03  0.18039957800E+03 0. -1.
</event>
<event>
 4   0  0.1092222E-03  0.2236068E+02  0.7957747E-01  0.1516063E+00
      -11   -1    0    0    0    0  0.00000000000E+00  0.00000000000E+00  0.50000000000E+03  0.50000000000E+03  0.00000000000E+00 0.  1.
       11   -1    0    0    0    0 -0.00000000000E+00 -0.00000000000E+00 -0.50000000000E+03  0.50000000000E+03  0.00000000000E+00 0. -1.
  1000024    1    1    2    0    0 -0.43846719064E+03 -0.21687288618E+02  0.15726467022E+03  0.50000000000E+03  0.18039957800E+03 0. -1.
 -1000024    1    1    2    0    0  0.43846719064E+03  0.21687288618E+02 -0.15726467022E+03  0.50000000000E+03  0.18039957800E+03 0.  1.
</event>
<event>
 4   0  0.7366543E-04  0.2236068E+02  0.7957747E-01  0.1516063E+00
      -11   -1    0    0    0    0  0.00000000000E+00  0.00000000000E+00  0.50000000000E+03  0.50000000000E+03  0.00000000000E+00 0.  1.
       11   -1    0    0    0    0 -0.00000000000E+00 -0.00000000000E+00 -0.50000000000E+03  0.50000000000E+03  0.00000000000E+00 0. -1.
  1000024    1    1    2    0    0 -0.17798127917E+03  0.41842410702E+03 -0.10344043302E+03  0.50000000000E+03  0.18039957800E+03 0. -1.
 -1000024    1    1    2    0    0  0.17798127917E+03 -0.41842410702E+03  0.10344043302E+03  0.50000000000E+03  0.18039957800E+03 0.  1.
</event>
<event>
 4   0  0.1092222E-03  0.2236068E+02  0.7957747E-01  0.1516063E+00
      -11   -1    0    0    0    0  0.00000000000E+00  0.00000000000E+00  0.50000000000E+03  0.50000000000E+03  0.00000000000E+00 0.  1.
       11   -1    0    0    0    0 -0.00000000000E+00 -0.00000000000E+00 -0.50000000000E+03  0.50000000000E+03  0.00000000000E+00 0. -1.
  1000024    1    1    2    0    0  0.17997006716E+03 -0.11380183049E+03  0.41486854612E+03  0.50000000000E+03  0.18039957800E+03 0.  1.
 -1000024    1    1    2    0    0 -0.17997006716E+03  0.11380183049E+03 -0.41486854612E+03  0.50000000000E+03  0.18039957800E+03 0.  1.
</event>
<event>
 4   0  0.1092222E-03  0.2236068E+02  0.7957747E-01  0.1516063E+00
      -11   -1    0    0    0    0  0.00000000000E+00  0.00000000000E+00  0.50000000000E+03  0.50000000000E+03  0.00000000000E+00 0.  1.
       11   -1    0    0    0    0 -0.00000000000E+00 -0.00000000000E+00 -0.50000000000E+03  0.50000000000E+03  0.00000000000E+00 0. -1.
  1000024    1    1    2    0    0  0.35130315022E+03  0.21386157172E+03  0.21978470612E+03  0.50000000000E+03  0.18039957800E+03 0.  1.
 -1000024    1    1    2    0    0 -0.35130315022E+03 -0.21386157172E+03 -0.21978470612E+03  0.50000000000E+03  0.18039957800E+03 0. -1.
</event>
<event>
 4   0  0.6712789E-04  0.2236068E+02  0.7957747E-01  0.1516063E+00
      -11   -1    0    0    0    0  0.00000000000E+00  0.00000000000E+00  0.50000000000E+03  0.50000000000E+03  0.00000000000E+00 0.  1.
       11   -1    0    0    0    0 -0.00000000000E+00 -0.00000000000E+00 -0.50000000000E+03  0.50000000000E+03  0.00000000000E+00 0. -1.
  1000024    1    1    2    0    0  0.31838015488E+03  0.28029056388E+03  0.19371956285E+03  0.50000000000E+03  0.18039957800E+03 0. -1.
 -1000024    1    1    2    0    0 -0.31838015488E+03 -0.28029056388E+03 -0.19371956285E+03  0.50000000000E+03  0.18039957800E+03 0.  1.
</event>
<event>
 4   0  0.1092222E-03  0.2236068E+02  0.7957747E-01  0.1516063E+00
      -11   -1    0    0    0    0  0.00000000000E+00  0.00000000000E+00  0.50000000000E+03  0.50000000000E+03  0.00000000000E+00 0.  1.
       11   -1    0    0    0    0 -0.00000000000E+00 -0.00000000000E+00 -0.50000000000E+03  0.50000000000E+03  0.00000000000E+00 0. -1.
  1000024    1    1    2    0    0 -0.20491737648E+03 -0.41824507454E+03 -0.23149917866E+02  0.50000000000E+03  0.18039957800E+03 0.  1.
 -1000024    1    1    2    0    0  0.20491737648E+03  0.41824507454E+03  0.23149917866E+02  0.50000000000E+03  0.18039957800E+03 0. -1.
</event>
<event>
 4   0  0.6712789E-04  0.2236068E+02  0.7957747E-01  0.1516063E+00
      -11   -1    0    0    0    0  0.00000000000E+00  0.00000000000E+00  0.50000000000E+03  0.50000000000E+03  0.00000000000E+00 0.  1.
       11   -1    0    0    0    0 -0.00000000000E+00 -0.00000000000E+00 -0.50000000000E+03  0.50000000000E+03  0.00000000000E+00 0. -1.
  1000024    1    1    2    0    0 -0.31415150047E+03 -0.27394329287E+03  0.20909303981E+03  0.50000000000E+03  0.18039957800E+03 0. -1.
 -1000024    1    1    2    0    0  0.31415150047E+03  0.27394329287E+03 -0.20909303981E+03  0.50000000000E+03  0.18039957800E+03 0.  1.
</event>
<event>
 4   0  0.1092222E-03  0.2236068E+02  0.7957747E-01  0.1516063E+00
      -11   -1    0    0    0    0  0.00000000000E+00  0.00000000000E+00  0.50000000000E+03  0.50000000000E+03  0.00000000000E+00 0.  1.
       11   -1    0    0    0    0 -0.00000000000E+00 -0.00000000000E+00 -0.50000000000E+03  0.50000000000E+03  0.00000000000E+00 0. -1.
  1000024    1    1    2    0    0  0.21209171506E+03 -0.38797606148E+03 -0.14814746833E+03  0.50000000000E+03  0.18039957800E+03 0.  1.
 -1000024    1    1    2    0    0 -0.21209171506E+03  0.38797606148E+03  0.14814746833E+03  0.50000000000E+03  0.18039957800E+03 0. -1.
</event>
<event>
 4   0  0.1092222E-03  0.2236068E+02  0.7957747E-01  0.1516063E+00
      -11   -1    0    0    0    0  0.00000000000E+00  0.00000000000E+00  0.50000000000E+03  0.50000000000E+03  0.00000000000E+00 0.  1.
       11   -1    0    0    0    0 -0.00000000000E+00 -0.00000000000E+00 -0.50000000000E+03  0.50000000000E+03  0.00000000000E+00 0. -1.
  1000024    1    1    2    0    0  0.23841947645E+03  0.37796388143E+03  0.13324957726E+03  0.50000000000E+03  0.18039957800E+03 0. -1.
 -1000024    1    1    2    0    0 -0.23841947645E+03 -0.37796388143E+03 -0.13324957726E+03  0.50000000000E+03  0.18039957800E+03 0.  1.
</event>
<event>
 4   0  0.7366543E-04  0.2236068E+02  0.7957747E-01  0.1516063E+00
      -11   -1    0    0    0    0  0.00000000000E+00  0.00000000000E+00  0.50000000000E+03  0.50000000000E+03  0.00000000000E+00 0.  1.
       11   -1    0    0    0    0 -0.00000000000E+00 -0.00000000000E+00 -0.50000000000E+03  0.50000000000E+03  0.00000000000E+00 0. -1.
  1000024    1    1    2    0    0 -0.15456806397E+02 -0.46477577094E+03  0.34649128965E+02  0.50000000000E+03  0.18039957800E+03 0.  1.
 -1000024    1    1    2    0    0  0.15456806397E+02  0.46477577094E+03 -0.34649128965E+02  0.50000000000E+03  0.18039957800E+03 0. -1.
</event>
<event>
 4   0  0.7366543E-04  0.2236068E+02  0.7957747E-01  0.1516063E+00
      -11   -1    0    0    0    0  0.00000000000E+00  0.00000000000E+00  0.50000000000E+03  0.50000000000E+03  0.00000000000E+00 0.  1.
       11   -1    0    0    0    0 -0.00000000000E+00 -0.00000000000E+00 -0.50000000000E+03  0.50000000000E+03  0.00000000000E+00 0. -1.
  1000024    1    1    2    0    0  0.31161778757E+02 -0.31014950995E+03  0.34683168437E+03  0.50000000000E+03  0.18039957800E+03 0.  1.
 -1000024    1    1    2    0    0 -0.31161778757E+02  0.31014950995E+03 -0.34683168437E+03  0.50000000000E+03  0.18039957800E+03 0. -1.
</event>
<event>
 4   0  0.6712789E-04  0.2236068E+02  0.7957747E-01  0.1516063E+00
      -11   -1    0    0    0    0  0.00000000000E+00  0.00000000000E+00  0.50000000000E+03  0.50000000000E+03  0.00000000000E+00 0.  1.
       11   -1    0    0    0    0 -0.00000000000E+00 -0.00000000000E+00 -0.50000000000E+03  0.50000000000E+03  0.00000000000E+00 0. -1.
  1000024    1    1    2    0    0  0.16485435707E+03 -0.36284079806E+03  0.24212721548E+03  0.50000000000E+03  0.18039957800E+03 0.  1.
 -1000024    1    1    2    0    0 -0.16485435707E+03  0.36284079806E+03 -0.24212721548E+03  0.50000000000E+03  0.18039957800E+03 0. -1.
</event>
<event>
 4   0  0.1092222E-03  0.2236068E+02  0.7957747E-01  0.1516063E+00
      -11   -1    0    0    0    0  0.00000000000E+00  0.00000000000E+00  0.50000000000E+03  0.50000000000E+03  0.00000000000E+00 0.  1.
       11   -1    0    0    0    0 -0.00000000000E+00 -0.00000000000E+00 -0.50000000000E+03  0.50000000000E+03  0.00000000000E+00 0. -1.
  1000024    1    1    2    0    0  0.58246952032E+02 -0.43624390625E+03 -0.15412507614E+03  0.50000000000E+03  0.18039957800E+03 0.  1.
 -1000024    1    1    2    0    0 -0.58246952032E+02  0.43624390625E+03  0.15412507614E+03  0.50000000000E+03  0.18039957800E+03 0. -1.
</event>
<event>
 4   0  0.1092222E-03  0.2236068E+02  0.7957747E-01  0.1516063E+00
      -11   -1    0    0    0    0  0.00000000000E+00  0.00000000000E+00  0.50000000000E+03  0.50000000000E+03  0.00000000000E+00 0.  1.
       11   -1    0    0    0    0 -0.00000000000E+00 -0.00000000000E+00 -0.50000000000E+03  0.50000000000E+03  0.00000000000E+00 0. -1.
  1000024    1    1    2    0    0  0.33970136629E+03 -0.24437837630E+03  0.20576244359E+03  0.50000000000E+03  0.18039957800E+03 0. -1.
 -1000024    1    1    2    0    0 -0.33970136629E+03  0.24437837630E+03 -0.20576244359E+03  0.50000000000E+03  0.18039957800E+03 0.  1.
</event>
<event>
 4   0  0.1092222E-03  0.2236068E+02  0.7957747E-01  0.1516063E+00
      -11   -1    0    0    0    0  0.00000000000E+00  0.00000000000E+00  0.50000000000E+03  0.50000000000E+03  0.00000000000E+00 0.  1.
       11   -1    0    0    0    0 -0.00000000000E+00 -0.00000000000E+00 -0.50000000000E+03  0.50000000000E+03  0.00000000000E+00 0. -1.
  1000024    1    1    2    0    0 -0.20670399558E+02 -0.45876895069E+03  0.80992448539E+02  0.50000000000E+03  0.18039957800E+03 0.  1.
 -1000024    1    1    2    0    0  0.20670399558E+02  0.45876895069E+03 -0.80992448539E+02  0.50000000000E+03  0.18039957800E+03 0. -1.
</event>
<event>
 4   0  0.7366543E-04  0.2236068E+02  0.7957747E-01  0.1516063E+00
      -11   -1    0    0    0    0  0.00000000000E+00  0.00000000000E+00  0.50000000000E+03  0.50000000000E+03  0.00000000000E+00 0.  1.
       11   -1    0    0    0    0 -0.00000000000E+00 -0.00000000000E+00 -0.50000000000E+03  0.50000000000E+03  0.00000000000E+00 0. -1.
  1000024    1    1    2    0    0 -0.13840092625E+03  0.96440789231E+02  0.43474170497E+03  0.50000000000E+03  0.18039957800E+03 0.  1.
 -1000024    1    1    2    0    0  0.13840092625E+03 -0.96440789231E+02 -0.43474170497E+03  0.50000000000E+03  0.18039957800E+03 0. -1.
</event>
<event>
 4   0  0.1092222E-03  0.2236068E+02  0.7957747E-01  0.1516063E+00
      -11   -1    0    0    0    0  0.00000000000E+00  0.00000000000E+00  0.50000000000E+03  0.50000000000E+03  0.00000000000E+00 0.  1.
       11   -1    0    0    0    0 -0.00000000000E+00 -0.00000000000E+00 -0.50000000000E+03  0.50000000000E+03  0.00000000000E+00 0. -1.
  1000024    1    1    2    0    0  0.11854051140E+02 -0.13426111022E+03  0.44641844497E+03  0.50000000000E+03  0.18039957800E+03 0.  1.
 -1000024    1    1    2    0    0 -0.11854051140E+02  0.13426111022E+03 -0.44641844497E+03  0.50000000000E+03  0.18039957800E+03 0.  1.
</event>
<event>
 4   0  0.1092222E-03  0.2236068E+02  0.7957747E-01  0.1516063E+00
      -11   -1    0    0    0    0  0.00000000000E+00  0.00000000000E+00  0.50000000000E+03  0.50000000000E+03  0.00000000000E+00 0.  1.
       11   -1    0    0    0    0 -0.00000000000E+00 -0.00000000000E+00 -0.50000000000E+03  0.50000000000E+03  0.00000000000E+00 0. -1.
  1000024    1    1    2    0    0  0.41153609849E+03 -0.11032254560E+03  0.18953355332E+03  0.50000000000E+03  0.18039957800E+03 0.  1.
 -1000024    1    1    2    0    0 -0.41153609849E+03  0.11032254560E+03 -0.18953355332E+03  0.50000000000E+03  0.18039957800E+03 0. -1.
</event>
<event>
 4   0  0.7366543E-04  0.2236068E+02  0.7957747E-01  0.1516063E+00
      -11   -1    0    0    0    0  0.00000000000E+00  0.00000000000E+00  0.50000000000E+03  0.50000000000E+03  0.00000000000E+00 0.  1.
       11   -1    0    0    0    0 -0.00000000000E+00 -0.00000000000E+00 -0.50000000000E+03  0.50000000000E+03  0.00000000000E+00 0. -1.
  1000024    1    1    2    0    0 -0.31942790723E+02  0.19167150520E+03  0.42390763672E+03  0.50000000000E+03  0.18039957800E+03 0.  1.
 -1000024    1    1    2    0    0  0.31942790723E+02 -0.19167150520E+03 -0.42390763672E+03  0.50000000000E+03  0.18039957800E+03 0. -1.
</event>
<event>
 4   0  0.7366543E-04  0.2236068E+02  0.7957747E-01  0.1516063E+00
      -11   -1    0    0    0    0  0.00000000000E+00  0.00000000000E+00  0.50000000000E+03  0.50000000000E+03  0.00000000000E+00 0.  1.
       11   -1    0    0    0    0 -0.00000000000E+00 -0.00000000000E+00 -0.50000000000E+03  0.50000000000E+03  0.00000000000E+00 0. -1.
  1000024    1    1    2    0    0 -0.16298342411E+03  0.25237015441E+02  0.43618286163E+03  0.50000000000E+03  0.18039957800E+03 0.  1.
 -1000024    1    1    2    0    0  0.16298342411E+03 -0.25237015441E+02 -0.43618286163E+03  0.50000000000E+03  0.18039957800E+03 0.  1.
</event>
<event>
 4   0  0.1092222E-03  0.2236068E+02  0.7957747E-01  0.1516063E+00
      -11   -1    0    0    0    0  0.00000000000E+00  0.00000000000E+00  0.50000000000E+03  0.50000000000E+03  0.00000000000E+00 0.  1.
       11   -1    0    0    0    0 -0.00000000000E+00 -0.00000000000E+00 -0.50000000000E+03  0.50000000000E+03  0.00000000000E+00 0. -1.
  1000024    1    1    2    0    0  0.67415834006E+02  0.41851418904E+03  0.19431153120E+03  0.50000000000E+03  0.18039957800E+03 0. -1.
 -1000024    1    1    2    0    0 -0.67415834006E+02 -0.41851418904E+03 -0.19431153120E+03  0.50000000000E+03  0.18039957800E+03 0.  1.
</event>
<event>
 4   0  0.6712789E-04  0.2236068E+02  0.7957747E-01  0.1516063E+00
      -11   -1    0    0    0    0  0.00000000000E+00  0.00000000000E+00  0.50000000000E+03  0.50000000000E+03  0.00000000000E+00 0.  1.
       11   -1    0    0    0    0 -0.00000000000E+00 -0.00000000000E+00 -0.50000000000E+03  0.50000000000E+03  0.00000000000E+00 0. -1.
  1000024    1    1    2    0    0 -0.33742005270E+03 -0.70865290489E+02  0.31397740507E+03  0.50000000000E+03  0.18039957800E+03 0. -1.
 -1000024    1    1    2    0    0  0.33742005270E+03  0.70865290489E+02 -0.31397740507E+03  0.50000000000E+03  0.18039957800E+03 0.  1.
</event>
<event>
 4   0  0.1092222E-03  0.2236068E+02  0.7957747E-01  0.1516063E+00
      -11   -1    0    0    0    0  0.00000000000E+00  0.00000000000E+00  0.50000000000E+03  0.50000000000E+03  0.00000000000E+00 0.  1.
       11   -1    0    0    0    0 -0.00000000000E+00 -0.00000000000E+00 -0.50000000000E+03  0.50000000000E+03  0.00000000000E+00 0. -1.
  1000024    1    1    2    0    0 -0.18664428220E+03 -0.11806665528E+03  0.41070691386E+03  0.50000000000E+03  0.18039957800E+03 0.  1.
 -1000024    1    1    2    0    0  0.18664428220E+03  0.11806665528E+03 -0.41070691386E+03  0.50000000000E+03  0.18039957800E+03 0.  1.
</event>
<event>
 4   0  0.6712789E-04  0.2236068E+02  0.7957747E-01  0.1516063E+00
      -11   -1    0    0    0    0  0.00000000000E+00  0.00000000000E+00  0.50000000000E+03  0.50000000000E+03  0.00000000000E+00 0.  1.
       11   -1    0    0    0    0 -0.00000000000E+00 -0.00000000000E+00 -0.50000000000E+03  0.50000000000E+03  0.00000000000E+00 0. -1.
  1000024    1    1    2    0    0 -0.15268926829E+02  0.22368788628E+03 -0.40888455787E+03  0.50000000000E+03  0.18039957800E+03 0.  1.
 -1000024    1    1    2    0    0  0.15268926829E+02 -0.22368788628E+03  0.40888455787E+03  0.50000000000E+03  0.18039957800E+03 0. -1.
</event>
<event>
 4   0  0.1092222E-03  0.2236068E+02  0.7957747E-01  0.1516063E+00
      -11   -1    0    0    0    0  0.00000000000E+00  0.00000000000E+00  0.50000000000E+03  0.50000000000E+03  0.00000000000E+00 0.  1.
       11   -1    0    0    0    0 -0.00000000000E+00 -0.00000000000E+00 -0.50000000000E+03  0.50000000000E+03  0.00000000000E+00 0. -1.
  1000024    1    1    2    0    0  0.34435925844E+03 -0.15607579843E+03  0.27297076497E+03  0.50000000000E+03  0.18039957800E+03 0.  1.
 -1000024    1    1    2    0    0 -0.34435925844E+03  0.15607579843E+03 -0.27297076497E+03  0.50000000000E+03  0.18039957800E+03 0. -1.
</event>
<event>
 4   0  0.1092222E-03  0.2236068E+02  0.7957747E-01  0.1516063E+00
      -11   -1    0    0    0    0  0.00000000000E+00  0.00000000000E+00  0.50000000000E+03  0.50000000000E+03  0.00000000000E+00 0.  1.
       11   -1    0    0    0    0 -0.00000000000E+00 -0.00000000000E+00 -0.50000000000E+03  0.50000000000E+03  0.00000000000E+00 0. -1.
  1000024    1    1    2    0    0  0.12640846693E+03  0.40318547050E+03  0.19727738879E+03  0.50000000000E+03  0.18039957800E+03 0.  1.
 -1000024    1    1    2    0    0 -0.12640846693E+03 -0.40318547050E+03 -0.19727738879E+03  0.50000000000E+03  0.18039957800E+03 0.  1.
</event>
<event>
 4   0  0.7366543E-04  0.2236068E+02  0.7957747E-01  0.1516063E+00
      -11   -1    0    0    0    0  0.00000000000E+00  0.00000000000E+00  0.50000000000E+03  0.50000000000E+03  0.00000000000E+00 0.  1.
       11   -1    0    0    0    0 -0.00000000000E+00 -0.00000000000E+00 -0.50000000000E+03  0.50000000000E+03  0.00000000000E+00 0. -1.
  1000024    1    1    2    0    0  0.26391761860E+03  0.14424220060E+03  0.35636732513E+03  0.50000000000E+03  0.18039957800E+03 0. -1.
 -1000024    1    1    2    0    0 -0.26391761860E+03 -0.14424220060E+03 -0.35636732513E+03  0.50000000000E+03  0.18039957800E+03 0.  1.
</event>
<event>
 4   0  0.7366543E-04  0.2236068E+02  0.7957747E-01  0.1516063E+00
      -11   -1    0    0    0    0  0.00000000000E+00  0.00000000000E+00  0.50000000000E+03  0.50000000000E+03  0.00000000000E+00 0.  1.
       11   -1    0    0    0    0 -0.00000000000E+00 -0.00000000000E+00 -0.50000000000E+03  0.50000000000E+03  0.00000000000E+00 0. -1.
  1000024    1    1    2    0    0 -0.28314447873E+02 -0.13056578042E+03  0.44677383684E+03  0.50000000000E+03  0.18039957800E+03 0.  1.
 -1000024    1    1    2    0    0  0.28314447873E+02  0.13056578042E+03 -0.44677383684E+03  0.50000000000E+03  0.18039957800E+03 0. -1.
</event>
<event>
 4   0  0.1092222E-03  0.2236068E+02  0.7957747E-01  0.1516063E+00
      -11   -1    0    0    0    0  0.00000000000E+00  0.00000000000E+00  0.50000000000E+03  0.50000000000E+03  0.00000000000E+00 0.  1.
       11   -1    0    0    0    0 -0.00000000000E+00 -0.00000000000E+00 -0.50000000000E+03  0.50000000000E+03  0.00000000000E+00 0. -1.
  1000024    1    1    2    0    0  0.14230602438E+02 -0.46496451666E+03  0.32580369158E+02  0.50000000000E+03  0.18039957800E+03 0. -1.
 -1000024    1    1    2    0    0 -0.14230602438E+02  0.46496451666E+03 -0.32580369158E+02  0.50000000000E+03  0.18039957800E+03 0.  1.
</event>
<event>
 4   0  0.7366543E-04  0.2236068E+02  0.7957747E-01  0.1516063E+00
      -11   -1    0    0    0    0  0.00000000000E+00  0.00000000000E+00  0.50000000000E+03  0.50000000000E+03  0.00000000000E+00 0.  1.
       11   -1    0    0    0    0 -0.00000000000E+00 -0.00000000000E+00 -0.50000000000E+03  0.50000000000E+03  0.00000000000E+00 0. -1.
  1000024    1    1    2    0    0 -0.39886033985E+03  0.60423354867E+02  0.23391331671E+03  0.50000000000E+03  0.18039957800E+03 0. -1.
 -1000024    1    1    2    0    0  0.39886033985E+03 -0.60423354867E+02 -0.23391331671E+03  0.50000000000E+03  0.18039957800E+03 0.  1.
</event>
<event>
 4   0  0.1092222E-03  0.2236068E+02  0.7957747E-01  0.1516063E+00
      -11   -1    0    0    0    0  0.00000000000E+00  0.00000000000E+00  0.50000000000E+03  0.50000000000E+03  0.00000000000E+00 0.  1.
       11   -1    0    0    0    0 -0.00000000000E+00 -0.00000000000E+00 -0.50000000000E+03  0.50000000000E+03  0.00000000000E+00 0. -1.
  1000024    1    1    2    0    0  0.39688911272E+03 -0.13033849377E+03  0.20723634214E+03  0.50000000000E+03  0.18039957800E+03 0.  1.
 -1000024    1    1    2    0    0 -0.39688911272E+03  0.13033849377E+03 -0.20723634214E+03  0.50000000000E+03  0.18039957800E+03 0. -1.
</event>
<event>
 4   0  0.7366543E-04  0.2236068E+02  0.7957747E-01  0.1516063E+00
      -11   -1    0    0    0    0  0.00000000000E+00  0.00000000000E+00  0.50000000000E+03  0.50000000000E+03  0.00000000000E+00 0.  1.
       11   -1    0    0    0    0 -0.00000000000E+00 -0.00000000000E+00 -0.50000000000E+03  0.50000000000E+03  0.00000000000E+00 0. -1.
  1000024    1    1    2    0    0  0.19415715664E+03 -0.32486442371E+03  0.27243732672E+03  0.50000000000E+03  0.18039957800E+03 0. -1.
 -1000024    1    1    2    0    0 -0.19415715664E+03  0.32486442371E+03 -0.27243732672E+03  0.50000000000E+03  0.18039957800E+03 0.  1.
</event>
<event>
 4   0  0.7366543E-04  0.2236068E+02  0.7957747E-01  0.1516063E+00
      -11   -1    0    0    0    0  0.00000000000E+00  0.00000000000E+00  0.50000000000E+03  0.50000000000E+03  0.00000000000E+00 0.  1.
       11   -1    0    0    0    0 -0.00000000000E+00 -0.00000000000E+00 -0.50000000000E+03  0.50000000000E+03  0.00000000000E+00 0. -1.
  1000024    1    1    2    0    0  0.26208306103E+03 -0.18641004680E+03 -0.33766811492E+03  0.50000000000E+03  0.18039957800E+03 0.  1.
 -1000024    1    1    2    0    0 -0.26208306103E+03  0.18641004680E+03  0.33766811492E+03  0.50000000000E+03  0.18039957800E+03 0. -1.
</event>
<event>
 4   0  0.1092222E-03  0.2236068E+02  0.7957747E-01  0.1516063E+00
      -11   -1    0    0    0    0  0.00000000000E+00  0.00000000000E+00  0.50000000000E+03  0.50000000000E+03  0.00000000000E+00 0.  1.
       11   -1    0    0    0    0 -0.00000000000E+00 -0.00000000000E+00 -0.50000000000E+03  0.50000000000E+03  0.00000000000E+00 0. -1.
  1000024    1    1    2    0    0 -0.40913029383E+03  0.19948969318E+03  0.10135214473E+03  0.50000000000E+03  0.18039957800E+03 0. -1.
 -1000024    1    1    2    0    0  0.40913029383E+03 -0.19948969318E+03 -0.10135214473E+03  0.50000000000E+03  0.18039957800E+03 0.  1.
</event>
<event>
 4   0  0.1092222E-03  0.2236068E+02  0.7957747E-01  0.1516063E+00
      -11   -1    0    0    0    0  0.00000000000E+00  0.00000000000E+00  0.50000000000E+03  0.50000000000E+03  0.00000000000E+00 0.  1.
       11   -1    0    0    0    0 -0.00000000000E+00 -0.00000000000E+00 -0.50000000000E+03  0.50000000000E+03  0.00000000000E+00 0. -1.
  1000024    1    1    2    0    0  0.13237260156E+02  0.33454757549E+03  0.32459002901E+03  0.50000000000E+03  0.18039957800E+03 0. -1.
 -1000024    1    1    2    0    0 -0.13237260156E+02 -0.33454757549E+03 -0.32459002901E+03  0.50000000000E+03  0.18039957800E+03 0.  1.
</event>
<event>
 4   0  0.7366543E-04  0.2236068E+02  0.7957747E-01  0.1516063E+00
      -11   -1    0    0    0    0  0.00000000000E+00  0.00000000000E+00  0.50000000000E+03  0.50000000000E+03  0.00000000000E+00 0.  1.
       11   -1    0    0    0    0 -0.00000000000E+00 -0.00000000000E+00 -0.50000000000E+03  0.50000000000E+03  0.00000000000E+00 0. -1.
  1000024    1    1    2    0    0  0.24722177371E+03  0.29964409285E+03 -0.25797442602E+03  0.50000000000E+03  0.18039957800E+03 0.  1.
 -1000024    1    1    2    0    0 -0.24722177371E+03 -0.29964409285E+03  0.25797442602E+03  0.50000000000E+03  0.18039957800E+03 0. -1.
</event>
<event>
 4   0  0.1092222E-03  0.2236068E+02  0.7957747E-01  0.1516063E+00
      -11   -1    0    0    0    0  0.00000000000E+00  0.00000000000E+00  0.50000000000E+03  0.50000000000E+03  0.00000000000E+00 0.  1.
       11   -1    0    0    0    0 -0.00000000000E+00 -0.00000000000E+00 -0.50000000000E+03  0.50000000000E+03  0.00000000000E+00 0. -1.
  1000024    1    1    2    0    0  0.37691737598E+03  0.23575104320E+03 -0.14075059351E+03  0.50000000000E+03  0.18039957800E+03 0. -1.
 -1000024    1    1    2    0    0 -0.37691737598E+03 -0.23575104320E+03  0.14075059351E+03  0.50000000000E+03  0.18039957800E+03 0.  1.
</event>
<event>
 4   0  0.7366543E-04  0.2236068E+02  0.7957747E-01  0.1516063E+00
      -11   -1    0    0    0    0  0.00000000000E+00  0.00000000000E+00  0.50000000000E+03  0.50000000000E+03  0.00000000000E+00 0.  1.
       11   -1    0    0    0    0 -0.00000000000E+00 -0.00000000000E+00 -0.50000000000E+03  0.50000000000E+03  0.00000000000E+00 0. -1.
  1000024    1    1    2    0    0  0.64204078345E+02 -0.35142031596E+03  0.29972919462E+03  0.50000000000E+03  0.18039957800E+03 0.  1.
 -1000024    1    1    2    0    0 -0.64204078345E+02  0.35142031596E+03 -0.29972919462E+03  0.50000000000E+03  0.18039957800E+03 0. -1.
</event>
<event>
 4   0  0.7366543E-04  0.2236068E+02  0.7957747E-01  0.1516063E+00
      -11   -1    0    0    0    0  0.00000000000E+00  0.00000000000E+00  0.50000000000E+03  0.50000000000E+03  0.00000000000E+00 0.  1.
       11   -1    0    0    0    0 -0.00000000000E+00 -0.00000000000E+00 -0.50000000000E+03  0.50000000000E+03  0.00000000000E+00 0. -1.
  1000024    1    1    2    0    0 -0.54334071401E+02  0.23409026158E+03  0.39963176848E+03  0.50000000000E+03  0.18039957800E+03 0.  1.
 -1000024    1    1    2    0    0  0.54334071401E+02 -0.23409026158E+03 -0.39963176848E+03  0.50000000000E+03  0.18039957800E+03 0. -1.
</event>
<event>
 4   0  0.6712789E-04  0.2236068E+02  0.7957747E-01  0.1516063E+00
      -11   -1    0    0    0    0  0.00000000000E+00  0.00000000000E+00  0.50000000000E+03  0.50000000000E+03  0.00000000000E+00 0.  1.
       11   -1    0    0    0    0 -0.00000000000E+00 -0.00000000000E+00 -0.50000000000E+03  0.50000000000E+03  0.00000000000E+00 0. -1.
  1000024    1    1    2    0    0 -0.27328446323E+03 -0.28406552395E+03  0.24915531805E+03  0.50000000000E+03  0.18039957800E+03 0. -1.
 -1000024    1    1    2    0    0  0.27328446323E+03  0.28406552395E+03 -0.24915531805E+03  0.50000000000E+03  0.18039957800E+03 0.  1.
</event>
<event>
 4   0  0.1092222E-03  0.2236068E+02  0.7957747E-01  0.1516063E+00
      -11   -1    0    0    0    0  0.00000000000E+00  0.00000000000E+00  0.50000000000E+03  0.50000000000E+03  0.00000000000E+00 0.  1.
       11   -1    0    0    0    0 -0.00000000000E+00 -0.00000000000E+00 -0.50000000000E+03  0.50000000000E+03  0.00000000000E+00 0. -1.
  1000024    1    1    2    0    0 -0.37391662988E+03 -0.14204024440E+03  0.23972257952E+03  0.50000000000E+03  0.18039957800E+03 0.  1.
 -1000024    1    1    2    0    0  0.37391662988E+03  0.14204024440E+03 -0.23972257952E+03  0.50000000000E+03  0.18039957800E+03 0. -1.
</event>
<event>
 4   0  0.1092222E-03  0.2236068E+02  0.7957747E-01  0.1516063E+00
      -11   -1    0    0    0    0  0.00000000000E+00  0.00000000000E+00  0.50000000000E+03  0.50000000000E+03  0.00000000000E+00 0.  1.
       11   -1    0    0    0    0 -0.00000000000E+00 -0.00000000000E+00 -0.50000000000E+03  0.50000000000E+03  0.00000000000E+00 0. -1.
  1000024    1    1    2    0    0 -0.18006707104E+02 -0.46534520890E+03  0.24198911360E+02  0.50000000000E+03  0.18039957800E+03 0.  1.
 -1000024    1    1    2    0    0  0.18006707104E+02  0.46534520890E+03 -0.24198911360E+02  0.50000000000E+03  0.18039957800E+03 0. -1.
</event>
<event>
 4   0  0.6712789E-04  0.2236068E+02  0.7957747E-01  0.1516063E+00
      -11   -1    0    0    0    0  0.00000000000E+00  0.00000000000E+00  0.50000000000E+03  0.50000000000E+03  0.00000000000E+00 0.  1.
       11   -1    0    0    0    0 -0.00000000000E+00 -0.00000000000E+00 -0.50000000000E+03  0.50000000000E+03  0.00000000000E+00 0. -1.
  1000024    1    1    2    0    0 -0.13731899022E+03 -0.40039477423E+03 -0.19566172837E+03  0.50000000000E+03  0.18039957800E+03 0.  1.
 -1000024    1    1    2    0    0  0.13731899022E+03  0.40039477423E+03  0.19566172837E+03  0.50000000000E+03  0.18039957800E+03 0. -1.
</event>
<event>
 4   0  0.1092222E-03  0.2236068E+02  0.7957747E-01  0.1516063E+00
      -11   -1    0    0    0    0  0.00000000000E+00  0.00000000000E+00  0.50000000000E+03  0.50000000000E+03  0.00000000000E+00 0.  1.
       11   -1    0    0    0    0 -0.00000000000E+00 -0.00000000000E+00 -0.50000000000E+03  0.50000000000E+03  0.00000000000E+00 0. -1.
  1000024    1    1    2    0    0 -0.16027173892E+03 -0.28156763136E+03  0.33539324819E+03  0.50000000000E+03  0.18039957800E+03 0.  1.
 -1000024    1    1    2    0    0  0.16027173892E+03  0.28156763136E+03 -0.33539324819E+03  0.50000000000E+03  0.18039957800E+03 0. -1.
</event>
<event>
 4   0  0.1092222E-03  0.2236068E+02  0.7957747E-01  0.1516063E+00
      -11   -1    0    0    0    0  0.00000000000E+00  0.00000000000E+00  0.50000000000E+03  0.50000000000E+03  0.00000000000E+00 0.  1.
       11   -1    0    0    0    0 -0.00000000000E+00 -0.00000000000E+00 -0.50000000000E+03  0.50000000000E+03  0.00000000000E+00 0. -1.
  1000024    1    1    2    0    0 -0.18537379105E+03  0.40069385041E+03 -0.15012324303E+03  0.50000000000E+03  0.18039957800E+03 0.  1.
 -1000024    1    1    2    0    0  0.18537379105E+03 -0.40069385041E+03  0.15012324303E+03  0.50000000000E+03  0.18039957800E+03 0. -1.
</event>
<event>
 4   0  0.6712789E-04  0.2236068E+02  0.7957747E-01  0.1516063E+00
      -11   -1    0    0    0    0  0.00000000000E+00  0.00000000000E+00  0.50000000000E+03  0.50000000000E+03  0.00000000000E+00 0.  1.
       11   -1    0    0    0    0 -0.00000000000E+00 -0.00000000000E+00 -0.50000000000E+03  0.50000000000E+03  0.00000000000E+00 0. -1.
  1000024    1    1    2    0    0 -0.23184441713E+03  0.39152432551E+03  0.10204342722E+03  0.50000000000E+03  0.18039957800E+03 0.  1.
 -1000024    1    1    2    0    0  0.23184441713E+03 -0.39152432551E+03 -0.10204342722E+03  0.50000000000E+03  0.18039957800E+03 0. -1.
</event>
<event>
 4   0  0.1092222E-03  0.2236068E+02  0.7957747E-01  0.1516063E+00
      -11   -1    0    0    0    0  0.00000000000E+00  0.00000000000E+00  0.50000000000E+03  0.50000000000E+03  0.00000000000E+00 0.  1.
       11   -1    0    0    0    0 -0.00000000000E+00 -0.00000000000E+00 -0.50000000000E+03  0.50000000000E+03  0.00000000000E+00 0. -1.
  1000024    1    1    2    0    0 -0.97039876337E+02 -0.45074730883E+03  0.69757567602E+02  0.50000000000E+03  0.18039957800E+03 0.  1.
 -1000024    1    1    2    0    0  0.97039876337E+02  0.45074730883E+03 -0.69757567602E+02  0.50000000000E+03  0.18039957800E+03 0. -1.
</event>
<event>
 4   0  0.1092222E-03  0.2236068E+02  0.7957747E-01  0.1516063E+00
      -11   -1    0    0    0    0  0.00000000000E+00  0.00000000000E+00  0.50000000000E+03  0.50000000000E+03  0.00000000000E+00 0.  1.
       11   -1    0    0    0    0 -0.00000000000E+00 -0.00000000000E+00 -0.50000000000E+03  0.50000000000E+03  0.00000000000E+00 0. -1.
  1000024    1    1    2    0    0  0.21607273188E+03 -0.22647740719E+03  0.34565380198E+03  0.50000000000E+03  0.18039957800E+03 0. -1.
 -1000024    1    1    2    0    0 -0.21607273188E+03  0.22647740719E+03 -0.34565380198E+03  0.50000000000E+03  0.18039957800E+03 0.  1.
</event>
<event>
 4   0  0.1092222E-03  0.2236068E+02  0.7957747E-01  0.1516063E+00
      -11   -1    0    0    0    0  0.00000000000E+00  0.00000000000E+00  0.50000000000E+03  0.50000000000E+03  0.00000000000E+00 0.  1.
       11   -1    0    0    0    0 -0.00000000000E+00 -0.00000000000E+00 -0.50000000000E+03  0.50000000000E+03  0.00000000000E+00 0. -1.
  1000024    1    1    2    0    0  0.71970280150E-01 -0.25613209284E+03  0.38968235538E+03  0.50000000000E+03  0.18039957800E+03 0. -1.
 -1000024    1    1    2    0    0 -0.71970280150E-01  0.25613209284E+03 -0.38968235538E+03  0.50000000000E+03  0.18039957800E+03 0. -1.
</event>
<event>
 4   0  0.7366543E-04  0.2236068E+02  0.7957747E-01  0.1516063E+00
      -11   -1    0    0    0    0  0.00000000000E+00  0.00000000000E+00  0.50000000000E+03  0.50000000000E+03  0.00000000000E+00 0.  1.
       11   -1    0    0    0    0 -0.00000000000E+00 -0.00000000000E+00 -0.50000000000E+03  0.50000000000E+03  0.00000000000E+00 0. -1.
  1000024    1    1    2    0    0  0.26717983990E+03  0.30910591230E+03  0.22477646761E+03  0.50000000000E+03  0.18039957800E+03 0. -1.
 -1000024    1    1    2    0    0 -0.26717983990E+03 -0.30910591230E+03 -0.22477646761E+03  0.50000000000E+03  0.18039957800E+03 0.  1.
</event>
<event>
 4   0  0.7366543E-04  0.2236068E+02  0.7957747E-01  0.1516063E+00
      -11   -1    0    0    0    0  0.00000000000E+00  0.00000000000E+00  0.50000000000E+03  0.50000000000E+03  0.00000000000E+00 0.  1.
       11   -1    0    0    0    0 -0.00000000000E+00 -0.00000000000E+00 -0.50000000000E+03  0.50000000000E+03  0.00000000000E+00 0. -1.
  1000024    1    1    2    0    0 -0.91629625251E+02  0.45716362049E+03  0.78376103443E+01  0.50000000000E+03  0.18039957800E+03 0. -1.
 -1000024    1    1    2    0    0  0.91629625251E+02 -0.45716362049E+03 -0.78376103443E+01  0.50000000000E+03  0.18039957800E+03 0.  1.
</event>
<event>
 4   0  0.6712789E-04  0.2236068E+02  0.7957747E-01  0.1516063E+00
      -11   -1    0    0    0    0  0.00000000000E+00  0.00000000000E+00  0.50000000000E+03  0.50000000000E+03  0.00000000000E+00 0.  1.
       11   -1    0    0    0    0 -0.00000000000E+00 -0.00000000000E+00 -0.50000000000E+03  0.50000000000E+03  0.00000000000E+00 0. -1.
  1000024    1    1    2    0    0 -0.26516761291E+02  0.15942225226E+03  0.43742130620E+03  0.50000000000E+03  0.18039957800E+03 0.  1.
 -1000024    1    1    2    0    0  0.26516761291E+02 -0.15942225226E+03 -0.43742130620E+03  0.50000000000E+03  0.18039957800E+03 0.  1.
</event>
<event>
 4   0  0.1092222E-03  0.2236068E+02  0.7957747E-01  0.1516063E+00
      -11   -1    0    0    0    0  0.00000000000E+00  0.00000000000E+00  0.50000000000E+03  0.50000000000E+03  0.00000000000E+00 0.  1.
       11   -1    0    0    0    0 -0.00000000000E+00 -0.00000000000E+00 -0.50000000000E+03  0.50000000000E+03  0.00000000000E+00 0. -1.
  1000024    1    1    2    0    0 -0.27928634635E+03  0.37126013507E+03  0.40262154747E+02  0.50000000000E+03  0.18039957800E+03 0. -1.
 -1000024    1    1    2    0    0  0.27928634635E+03 -0.37126013507E+03 -0.40262154747E+02  0.50000000000E+03  0.18039957800E+03 0.  1.
</event>
<event>
 4   0  0.7366543E-04  0.2236068E+02  0.7957747E-01  0.1516063E+00
      -11   -1    0    0    0    0  0.00000000000E+00  0.00000000000E+00  0.50000000000E+03  0.50000000000E+03  0.00000000000E+00 0.  1.
       11   -1    0    0    0    0 -0.00000000000E+00 -0.00000000000E+00 -0.50000000000E+03  0.50000000000E+03  0.00000000000E+00 0. -1.
  1000024    1    1    2    0    0 -0.35312486648E+03 -0.29286040293E+03  0.83615819838E+02  0.50000000000E+03  0.18039957800E+03 0. -1.
 -1000024    1    1    2    0    0  0.35312486648E+03  0.29286040293E+03 -0.83615819838E+02  0.50000000000E+03  0.18039957800E+03 0.  1.
</event>
<event>
 4   0  0.7366543E-04  0.2236068E+02  0.7957747E-01  0.1516063E+00
      -11   -1    0    0    0    0  0.00000000000E+00  0.00000000000E+00  0.50000000000E+03  0.50000000000E+03  0.00000000000E+00 0.  1.
       11   -1    0    0    0    0 -0.00000000000E+00 -0.00000000000E+00 -0.50000000000E+03  0.50000000000E+03  0.00000000000E+00 0. -1.
  1000024    1    1    2    0    0 -0.27932964515E+03  0.32024443615E+03  0.19202719264E+03  0.50000000000E+03  0.18039957800E+03 0.  1.
 -1000024    1    1    2    0    0  0.27932964515E+03 -0.32024443615E+03 -0.19202719264E+03  0.50000000000E+03  0.18039957800E+03 0. -1.
</event>
<event>
 4   0  0.1092222E-03  0.2236068E+02  0.7957747E-01  0.1516063E+00
      -11   -1    0    0    0    0  0.00000000000E+00  0.00000000000E+00  0.50000000000E+03  0.50000000000E+03  0.00000000000E+00 0.  1.
       11   -1    0    0    0    0 -0.00000000000E+00 -0.00000000000E+00 -0.50000000000E+03  0.50000000000E+03  0.00000000000E+00 0. -1.
  1000024    1    1    2    0    0  0.10253210542E+02  0.45942383079E+03  0.79250284724E+02  0.50000000000E+03  0.18039957800E+03 0.  1.
 -1000024    1    1    2    0    0 -0.10253210542E+02 -0.45942383079E+03 -0.79250284724E+02  0.50000000000E+03  0.18039957800E+03 0. -1.
</event>
<event>
 4   0  0.1092222E-03  0.2236068E+02  0.7957747E-01  0.1516063E+00
      -11   -1    0    0    0    0  0.00000000000E+00  0.00000000000E+00  0.50000000000E+03  0.50000000000E+03  0.00000000000E+00 0.  1.
       11   -1    0    0    0    0 -0.00000000000E+00 -0.00000000000E+00 -0.50000000000E+03  0.50000000000E+03  0.00000000000E+00 0. -1.
  1000024    1    1    2    0    0  0.41333697849E+03  0.53959520274E+02  0.20903804592E+03  0.50000000000E+03  0.18039957800E+03 0.  1.
 -1000024    1    1    2    0    0 -0.41333697849E+03 -0.53959520274E+02 -0.20903804592E+03  0.50000000000E+03  0.18039957800E+03 0. -1.
</event>
<event>
 4   0  0.6712789E-04  0.2236068E+02  0.7957747E-01  0.1516063E+00
      -11   -1    0    0    0    0  0.00000000000E+00  0.00000000000E+00  0.50000000000E+03  0.50000000000E+03  0.00000000000E+00 0.  1.
       11   -1    0    0    0    0 -0.00000000000E+00 -0.00000000000E+00 -0.50000000000E+03  0.50000000000E+03  0.00000000000E+00 0. -1.
  1000024    1    1    2    0    0  0.25060611787E+03 -0.87236041070E+00  0.39325793689E+03  0.50000000000E+03  0.18039957800E+03 0.  1.
 -1000024    1    1    2    0    0 -0.25060611787E+03  0.87236041070E+00 -0.39325793689E+03  0.50000000000E+03  0.18039957800E+03 0. -1.
</event>
<event>
 4   0  0.1092222E-03  0.2236068E+02  0.7957747E-01  0.1516063E+00
      -11   -1    0    0    0    0  0.00000000000E+00  0.00000000000E+00  0.50000000000E+03  0.50000000000E+03  0.00000000000E+00 0.  1.
       11   -1    0    0    0    0 -0.00000000000E+00 -0.00000000000E+00 -0.50000000000E+03  0.50000000000E+03  0.00000000000E+00 0. -1.
  1000024    1    1    2    0    0  0.23232183705E+03  0.31127454802E+03  0.25805176232E+03  0.50000000000E+03  0.18039957800E+03 0.  1.
 -1000024    1    1    2    0    0 -0.23232183705E+03 -0.31127454802E+03 -0.25805176232E+03  0.50000000000E+03  0.18039957800E+03 0.  1.
</event>
<event>
 4   0  0.7366543E-04  0.2236068E+02  0.7957747E-01  0.1516063E+00
      -11   -1    0    0    0    0  0.00000000000E+00  0.00000000000E+00  0.50000000000E+03  0.50000000000E+03  0.00000000000E+00 0.  1.
       11   -1    0    0    0    0 -0.00000000000E+00 -0.00000000000E+00 -0.50000000000E+03  0.50000000000E+03  0.00000000000E+00 0. -1.
  1000024    1    1    2    0    0 -0.33161041471E+03  0.35633060046E+02  0.32591534199E+03  0.50000000000E+03  0.18039957800E+03 0.  1.
 -1000024    1    1    2    0    0  0.33161041471E+03 -0.35633060046E+02 -0.32591534199E+03  0.50000000000E+03  0.18039957800E+03 0. -1.
</event>
<event>
 4   0  0.1092222E-03  0.2236068E+02  0.7957747E-01  0.1516063E+00
      -11   -1    0    0    0    0  0.00000000000E+00  0.00000000000E+00  0.50000000000E+03  0.50000000000E+03  0.00000000000E+00 0.  1.
       11   -1    0    0    0    0 -0.00000000000E+00 -0.00000000000E+00 -0.50000000000E+03  0.50000000000E+03  0.00000000000E+00 0. -1.
  1000024    1    1    2    0    0  0.13084035508E+03 -0.15770129765E+03  0.41888792590E+03  0.50000000000E+03  0.18039957800E+03 0. -1.
 -1000024    1    1    2    0    0 -0.13084035508E+03  0.15770129765E+03 -0.41888792590E+03  0.50000000000E+03  0.18039957800E+03 0.  1.
</event>
<event>
 4   0  0.1092222E-03  0.2236068E+02  0.7957747E-01  0.1516063E+00
      -11   -1    0    0    0    0  0.00000000000E+00  0.00000000000E+00  0.50000000000E+03  0.50000000000E+03  0.00000000000E+00 0.  1.
       11   -1    0    0    0    0 -0.00000000000E+00 -0.00000000000E+00 -0.50000000000E+03  0.50000000000E+03  0.00000000000E+00 0. -1.
  1000024    1    1    2    0    0  0.21509352611E+01  0.45853536731E+03  0.84833263881E+02  0.50000000000E+03  0.18039957800E+03 0.  1.
 -1000024    1    1    2    0    0 -0.21509352611E+01 -0.45853536731E+03 -0.84833263881E+02  0.50000000000E+03  0.18039957800E+03 0. -1.
</event>
<event>
 4   0  0.6712789E-04  0.2236068E+02  0.7957747E-01  0.1516063E+00
      -11   -1    0    0    0    0  0.00000000000E+00  0.00000000000E+00  0.50000000000E+03  0.50000000000E+03  0.00000000000E+00 0.  1.
       11   -1    0    0    0    0 -0.00000000000E+00 -0.00000000000E+00 -0.50000000000E+03  0.50000000000E+03  0.00000000000E+00 0. -1.
  1000024    1    1    2    0    0 -0.34273804700E+03  0.29879243990E+03 -0.10348768650E+03  0.50000000000E+03  0.18039957800E+03 0.  1.
 -1000024    1    1    2    0    0  0.34273804700E+03 -0.29879243990E+03  0.10348768650E+03  0.50000000000E+03  0.18039957800E+03 0. -1.
</event>
<event>
 4   0  0.6712789E-04  0.2236068E+02  0.7957747E-01  0.1516063E+00
      -11   -1    0    0    0    0  0.00000000000E+00  0.00000000000E+00  0.50000000000E+03  0.50000000000E+03  0.00000000000E+00 0.  1.
       11   -1    0    0    0    0 -0.00000000000E+00 -0.00000000000E+00 -0.50000000000E+03  0.50000000000E+03  0.00000000000E+00 0. -1.
  1000024    1    1    2    0    0 -0.11812819675E+03  0.35272196645E+02  0.44973057883E+03  0.50000000000E+03  0.18039957800E+03 0. -1.
 -1000024    1    1    2    0    0  0.11812819675E+03 -0.35272196645E+02 -0.44973057883E+03  0.50000000000E+03  0.18039957800E+03 0.  1.
</event>
<event>
 4   0  0.1092222E-03  0.2236068E+02  0.7957747E-01  0.1516063E+00
      -11   -1    0    0    0    0  0.00000000000E+00  0.00000000000E+00  0.50000000000E+03  0.50000000000E+03  0.00000000000E+00 0.  1.
       11   -1    0    0    0    0 -0.00000000000E+00 -0.00000000000E+00 -0.50000000000E+03  0.50000000000E+03  0.00000000000E+00 0. -1.
  1000024    1    1    2    0    0  0.17986529928E+03 -0.43018736360E+03  0.65801651679E+01  0.50000000000E+03  0.18039957800E+03 0.  1.
 -1000024    1    1    2    0    0 -0.17986529928E+03  0.43018736360E+03 -0.65801651679E+01  0.50000000000E+03  0.18039957800E+03 0. -1.
</event>
<event>
 4   0  0.6712789E-04  0.2236068E+02  0.7957747E-01  0.1516063E+00
      -11   -1    0    0    0    0  0.00000000000E+00  0.00000000000E+00  0.50000000000E+03  0.50000000000E+03  0.00000000000E+00 0.  1.
       11   -1    0    0    0    0 -0.00000000000E+00 -0.00000000000E+00 -0.50000000000E+03  0.50000000000E+03  0.00000000000E+00 0. -1.
  1000024    1    1    2    0    0 -0.39648070479E+03 -0.23730311343E+03  0.62819386717E+02  0.50000000000E+03  0.18039957800E+03 0.  1.
 -1000024    1    1    2    0    0  0.39648070479E+03  0.23730311343E+03 -0.62819386717E+02  0.50000000000E+03  0.18039957800E+03 0. -1.
</event>
<event>
 4   0  0.1092222E-03  0.2236068E+02  0.7957747E-01  0.1516063E+00
      -11   -1    0    0    0    0  0.00000000000E+00  0.00000000000E+00  0.50000000000E+03  0.50000000000E+03  0.00000000000E+00 0.  1.
       11   -1    0    0    0    0 -0.00000000000E+00 -0.00000000000E+00 -0.50000000000E+03  0.50000000000E+03  0.00000000000E+00 0. -1.
  1000024    1    1    2    0    0 -0.49841447625E+02  0.30481605843E+03  0.34936942178E+03  0.50000000000E+03  0.18039957800E+03 0.  1.
 -1000024    1    1    2    0    0  0.49841447625E+02 -0.30481605843E+03 -0.34936942178E+03  0.50000000000E+03  0.18039957800E+03 0. -1.
</event>
<event>
 4   0  0.1092222E-03  0.2236068E+02  0.7957747E-01  0.1516063E+00
      -11   -1    0    0    0    0  0.00000000000E+00  0.00000000000E+00  0.50000000000E+03  0.50000000000E+03  0.00000000000E+00 0.  1.
       11   -1    0    0    0    0 -0.00000000000E+00 -0.00000000000E+00 -0.50000000000E+03  0.50000000000E+03  0.00000000000E+00 0. -1.
  1000024    1    1    2    0    0  0.20354307804E+03  0.10628804062E+03  0.40586827920E+03  0.50000000000E+03  0.18039957800E+03 0. -1.
 -1000024    1    1    2    0    0 -0.20354307804E+03 -0.10628804062E+03 -0.40586827920E+03  0.50000000000E+03  0.18039957800E+03 0.  1.
</event>
<event>
 4   0  0.1092222E-03  0.2236068E+02  0.7957747E-01  0.1516063E+00
      -11   -1    0    0    0    0  0.00000000000E+00  0.00000000000E+00  0.50000000000E+03  0.50000000000E+03  0.00000000000E+00 0.  1.
       11   -1    0    0    0    0 -0.00000000000E+00 -0.00000000000E+00 -0.50000000000E+03  0.50000000000E+03  0.00000000000E+00 0. -1.
  1000024    1    1    2    0    0 -0.18071946932E+03 -0.42794257941E+02  0.42774421931E+03  0.50000000000E+03  0.18039957800E+03 0.  1.
 -1000024    1    1    2    0    0  0.18071946932E+03  0.42794257941E+02 -0.42774421931E+03  0.50000000000E+03  0.18039957800E+03 0. -1.
</event>
<event>
 4   0  0.1092222E-03  0.2236068E+02  0.7957747E-01  0.1516063E+00
      -11   -1    0    0    0    0  0.00000000000E+00  0.00000000000E+00  0.50000000000E+03  0.50000000000E+03  0.00000000000E+00 0.  1.
       11   -1    0    0    0    0 -0.00000000000E+00 -0.00000000000E+00 -0.50000000000E+03  0.50000000000E+03  0.00000000000E+00 0. -1.
  1000024    1    1    2    0    0 -0.34197930811E+03  0.21095462657E+03  0.23665225672E+03  0.50000000000E+03  0.18039957800E+03 0.  1.
 -1000024    1    1    2    0    0  0.34197930811E+03 -0.21095462657E+03 -0.23665225672E+03  0.50000000000E+03  0.18039957800E+03 0.  1.
</event>
<event>
 4   0  0.1092222E-03  0.2236068E+02  0.7957747E-01  0.1516063E+00
      -11   -1    0    0    0    0  0.00000000000E+00  0.00000000000E+00  0.50000000000E+03  0.50000000000E+03  0.00000000000E+00 0.  1.
       11   -1    0    0    0    0 -0.00000000000E+00 -0.00000000000E+00 -0.50000000000E+03  0.50000000000E+03  0.00000000000E+00 0. -1.
  1000024    1    1    2    0    0 -0.22686961131E+03 -0.39594921729E+03  0.95970771834E+02  0.50000000000E+03  0.18039957800E+03 0.  1.
 -1000024    1    1    2    0    0  0.22686961131E+03  0.39594921729E+03 -0.95970771834E+02  0.50000000000E+03  0.18039957800E+03 0. -1.
</event>
<event>
 4   0  0.1092222E-03  0.2236068E+02  0.7957747E-01  0.1516063E+00
      -11   -1    0    0    0    0  0.00000000000E+00  0.00000000000E+00  0.50000000000E+03  0.50000000000E+03  0.00000000000E+00 0.  1.
       11   -1    0    0    0    0 -0.00000000000E+00 -0.00000000000E+00 -0.50000000000E+03  0.50000000000E+03  0.00000000000E+00 0. -1.
  1000024    1    1    2    0    0  0.16380071452E+03 -0.43658574564E+03 -0.42667183690E+01  0.50000000000E+03  0.18039957800E+03 0.  1.
 -1000024    1    1    2    0    0 -0.16380071452E+03  0.43658574564E+03  0.42667183690E+01  0.50000000000E+03  0.18039957800E+03 0. -1.
</event>
<event>
 4   0  0.1092222E-03  0.2236068E+02  0.7957747E-01  0.1516063E+00
      -11   -1    0    0    0    0  0.00000000000E+00  0.00000000000E+00  0.50000000000E+03  0.50000000000E+03  0.00000000000E+00 0.  1.
       11   -1    0    0    0    0 -0.00000000000E+00 -0.00000000000E+00 -0.50000000000E+03  0.50000000000E+03  0.00000000000E+00 0. -1.
  1000024    1    1    2    0    0  0.26617311834E+03  0.21910953188E+03  0.31400458018E+03  0.50000000000E+03  0.18039957800E+03 0.  1.
 -1000024    1    1    2    0    0 -0.26617311834E+03 -0.21910953188E+03 -0.31400458018E+03  0.50000000000E+03  0.18039957800E+03 0. -1.
</event>
<event>
 4   0  0.1092222E-03  0.2236068E+02  0.7957747E-01  0.1516063E+00
      -11   -1    0    0    0    0  0.00000000000E+00  0.00000000000E+00  0.50000000000E+03  0.50000000000E+03  0.00000000000E+00 0.  1.
       11   -1    0    0    0    0 -0.00000000000E+00 -0.00000000000E+00 -0.50000000000E+03  0.50000000000E+03  0.00000000000E+00 0. -1.
  1000024    1    1    2    0    0 -0.20050423352E+03  0.16543298683E+03  0.38715109643E+03  0.50000000000E+03  0.18039957800E+03 0. -1.
 -1000024    1    1    2    0    0  0.20050423352E+03 -0.16543298683E+03 -0.38715109643E+03  0.50000000000E+03  0.18039957800E+03 0.  1.
</event>
<event>
 4   0  0.6712789E-04  0.2236068E+02  0.7957747E-01  0.1516063E+00
      -11   -1    0    0    0    0  0.00000000000E+00  0.00000000000E+00  0.50000000000E+03  0.50000000000E+03  0.00000000000E+00 0.  1.
       11   -1    0    0    0    0 -0.00000000000E+00 -0.00000000000E+00 -0.50000000000E+03  0.50000000000E+03  0.00000000000E+00 0. -1.
  1000024    1    1    2    0    0 -0.34423618943E+03 -0.74659933448E+02  0.30558686569E+03  0.50000000000E+03  0.18039957800E+03 0.  1.
 -1000024    1    1    2    0    0  0.34423618943E+03  0.74659933448E+02 -0.30558686569E+03  0.50000000000E+03  0.18039957800E+03 0. -1.
</event>
<event>
 4   0  0.1092222E-03  0.2236068E+02  0.7957747E-01  0.1516063E+00
      -11   -1    0    0    0    0  0.00000000000E+00  0.00000000000E+00  0.50000000000E+03  0.50000000000E+03  0.00000000000E+00 0.  1.
       11   -1    0    0    0    0 -0.00000000000E+00 -0.00000000000E+00 -0.50000000000E+03  0.50000000000E+03  0.00000000000E+00 0. -1.
  1000024    1    1    2    0    0 -0.36431334649E+03 -0.10701933049E+03 -0.27070027841E+03  0.50000000000E+03  0.18039957800E+03 0. -1.
 -1000024    1    1    2    0    0  0.36431334649E+03  0.10701933049E+03  0.27070027841E+03  0.50000000000E+03  0.18039957800E+03 0.  1.
</event>
<event>
 4   0  0.7366543E-04  0.2236068E+02  0.7957747E-01  0.1516063E+00
      -11   -1    0    0    0    0  0.00000000000E+00  0.00000000000E+00  0.50000000000E+03  0.50000000000E+03  0.00000000000E+00 0.  1.
       11   -1    0    0    0    0 -0.00000000000E+00 -0.00000000000E+00 -0.50000000000E+03  0.50000000000E+03  0.00000000000E+00 0. -1.
  1000024    1    1    2    0    0 -0.22595309908E+03  0.29308842614E+03  0.28372586019E+03  0.50000000000E+03  0.18039957800E+03 0. -1.
 -1000024    1    1    2    0    0  0.22595309908E+03 -0.29308842614E+03 -0.28372586019E+03  0.50000000000E+03  0.18039957800E+03 0.  1.
</event>
<event>
 4   0  0.1092222E-03  0.2236068E+02  0.7957747E-01  0.1516063E+00
      -11   -1    0    0    0    0  0.00000000000E+00  0.00000000000E+00  0.50000000000E+03  0.50000000000E+03  0.00000000000E+00 0.  1.
       11   -1    0    0    0    0 -0.00000000000E+00 -0.00000000000E+00 -0.50000000000E+03  0.50000000000E+03  0.00000000000E+00 0. -1.
  1000024    1    1    2    0    0 -0.22740869203E+03  0.19699484911E+03  0.35627841426E+03  0.50000000000E+03  0.18039957800E+03 0.  1.
 -1000024    1    1    2    0    0  0.22740869203E+03 -0.19699484911E+03 -0.35627841426E+03  0.50000000000E+03  0.18039957800E+03 0. -1.
</event>
<event>
 4   0  0.1092222E-03  0.2236068E+02  0.7957747E-01  0.1516063E+00
      -11   -1    0    0    0    0  0.00000000000E+00  0.00000000000E+00  0.50000000000E+03  0.50000000000E+03  0.00000000000E+00 0.  1.
       11   -1    0    0    0    0 -0.00000000000E+00 -0.00000000000E+00 -0.50000000000E+03  0.50000000000E+03  0.00000000000E+00 0. -1.
  1000024    1    1    2    0    0 -0.36405055046E+03 -0.79182924019E+02  0.28045187379E+03  0.50000000000E+03  0.18039957800E+03 0.  1.
 -1000024    1    1    2    0    0  0.36405055046E+03  0.79182924019E+02 -0.28045187379E+03  0.50000000000E+03  0.18039957800E+03 0. -1.
</event>
<event>
 4   0  0.1092222E-03  0.2236068E+02  0.7957747E-01  0.1516063E+00
      -11   -1    0    0    0    0  0.00000000000E+00  0.00000000000E+00  0.50000000000E+03  0.50000000000E+03  0.00000000000E+00 0.  1.
       11   -1    0    0    0    0 -0.00000000000E+00 -0.00000000000E+00 -0.50000000000E+03  0.50000000000E+03  0.00000000000E+00 0. -1.
  1000024    1    1    2    0    0 -0.26609957122E+03 -0.38045336663E+02  0.38105060400E+03  0.50000000000E+03  0.18039957800E+03 0.  1.
 -1000024    1    1    2    0    0  0.26609957122E+03  0.38045336663E+02 -0.38105060400E+03  0.50000000000E+03  0.18039957800E+03 0. -1.
</event>
<event>
 4   0  0.1092222E-03  0.2236068E+02  0.7957747E-01  0.1516063E+00
      -11   -1    0    0    0    0  0.00000000000E+00  0.00000000000E+00  0.50000000000E+03  0.50000000000E+03  0.00000000000E+00 0.  1.
       11   -1    0    0    0    0 -0.00000000000E+00 -0.00000000000E+00 -0.50000000000E+03  0.50000000000E+03  0.00000000000E+00 0. -1.
  1000024    1    1    2    0    0  0.37538396706E+03 -0.64321287587E+01 -0.27658904037E+03  0.50000000000E+03  0.18039957800E+03 0.  1.
 -1000024    1    1    2    0    0 -0.37538396706E+03  0.64321287587E+01  0.27658904037E+03  0.50000000000E+03  0.18039957800E+03 0. -1.
</event>
<event>
 4   0  0.6712789E-04  0.2236068E+02  0.7957747E-01  0.1516063E+00
      -11   -1    0    0    0    0  0.00000000000E+00  0.00000000000E+00  0.50000000000E+03  0.50000000000E+03  0.00000000000E+00 0.  1.
       11   -1    0    0    0    0 -0.00000000000E+00 -0.00000000000E+00 -0.50000000000E+03  0.50000000000E+03  0.00000000000E+00 0. -1.
  1000024    1    1    2    0    0  0.39419127378E+02  0.12500917262E+03  0.44752076088E+03  0.50000000000E+03  0.18039957800E+03 0.  1.
 -1000024    1    1    2    0    0 -0.39419127378E+02 -0.12500917262E+03 -0.44752076088E+03  0.50000000000E+03  0.18039957800E+03 0.  1.
</event>
<event>
 4   0  0.1092222E-03  0.2236068E+02  0.7957747E-01  0.1516063E+00
      -11   -1    0    0    0    0  0.00000000000E+00  0.00000000000E+00  0.50000000000E+03  0.50000000000E+03  0.00000000000E+00 0.  1.
       11   -1    0    0    0    0 -0.00000000000E+00 -0.00000000000E+00 -0.50000000000E+03  0.50000000000E+03  0.00000000000E+00 0. -1.
  1000024    1    1    2    0    0 -0.20617883676E+02 -0.33170336013E+03  0.32711431643E+03  0.50000000000E+03  0.18039957800E+03 0.  1.
 -1000024    1    1    2    0    0  0.20617883676E+02  0.33170336013E+03 -0.32711431643E+03  0.50000000000E+03  0.18039957800E+03 0. -1.
</event>
<event>
 4   0  0.1092222E-03  0.2236068E+02  0.7957747E-01  0.1516063E+00
      -11   -1    0    0    0    0  0.00000000000E+00  0.00000000000E+00  0.50000000000E+03  0.50000000000E+03  0.00000000000E+00 0.  1.
       11   -1    0    0    0    0 -0.00000000000E+00 -0.00000000000E+00 -0.50000000000E+03  0.50000000000E+03  0.00000000000E+00 0. -1.
  1000024    1    1    2    0    0  0.36992671893E+02 -0.34372228759E+03  0.31295770241E+03  0.50000000000E+03  0.18039957800E+03 0. -1.
 -1000024    1    1    2    0    0 -0.36992671893E+02  0.34372228759E+03 -0.31295770241E+03  0.50000000000E+03  0.18039957800E+03 0.  1.
</event>
<event>
 4   0  0.1092222E-03  0.2236068E+02  0.7957747E-01  0.1516063E+00
      -11   -1    0    0    0    0  0.00000000000E+00  0.00000000000E+00  0.50000000000E+03  0.50000000000E+03  0.00000000000E+00 0.  1.
       11   -1    0    0    0    0 -0.00000000000E+00 -0.00000000000E+00 -0.50000000000E+03  0.50000000000E+03  0.00000000000E+00 0. -1.
  1000024    1    1    2    0    0 -0.45636257929E+03 -0.77725525516E+02  0.56106427136E+02  0.50000000000E+03  0.18039957800E+03 0. -1.
 -1000024    1    1    2    0    0  0.45636257929E+03  0.77725525516E+02 -0.56106427136E+02  0.50000000000E+03  0.18039957800E+03 0.  1.
</event>
<event>
 4   0  0.7366543E-04  0.2236068E+02  0.7957747E-01  0.1516063E+00
      -11   -1    0    0    0    0  0.00000000000E+00  0.00000000000E+00  0.50000000000E+03  0.50000000000E+03  0.00000000000E+00 0.  1.
       11   -1    0    0    0    0 -0.00000000000E+00 -0.00000000000E+00 -0.50000000000E+03  0.50000000000E+03  0.00000000000E+00 0. -1.
  1000024    1    1    2    0    0 -0.35328895116E+03  0.30434362655E+03 -0.42268452560E+01  0.50000000000E+03  0.18039957800E+03 0. -1.
 -1000024    1    1    2    0    0  0.35328895116E+03 -0.30434362655E+03  0.42268452560E+01  0.50000000000E+03  0.18039957800E+03 0.  1.
</event>
<event>
 4   0  0.7366543E-04  0.2236068E+02  0.7957747E-01  0.1516063E+00
      -11   -1    0    0    0    0  0.00000000000E+00  0.00000000000E+00  0.50000000000E+03  0.50000000000E+03  0.00000000000E+00 0.  1.
       11   -1    0    0    0    0 -0.00000000000E+00 -0.00000000000E+00 -0.50000000000E+03  0.50000000000E+03  0.00000000000E+00 0. -1.
  1000024    1    1    2    0    0  0.37727031353E+03  0.27299995328E+03 -0.24374747102E+02  0.50000000000E+03  0.18039957800E+03 0. -1.
 -1000024    1    1    2    0    0 -0.37727031353E+03 -0.27299995328E+03  0.24374747102E+02  0.50000000000E+03  0.18039957800E+03 0.  1.
</event>
<event>
 4   0  0.6712789E-04  0.2236068E+02  0.7957747E-01  0.1516063E+00
      -11   -1    0    0    0    0  0.00000000000E+00  0.00000000000E+00  0.50000000000E+03  0.50000000000E+03  0.00000000000E+00 0.  1.
       11   -1    0    0    0    0 -0.00000000000E+00 -0.00000000000E+00 -0.50000000000E+03  0.50000000000E+03  0.00000000000E+00 0. -1.
  1000024    1    1    2    0    0  0.12059756078E+03 -0.17926722354E+03  0.41324990400E+03  0.50000000000E+03  0.18039957800E+03 0. -1.
 -1000024    1    1    2    0    0 -0.12059756078E+03  0.17926722354E+03 -0.41324990400E+03  0.50000000000E+03  0.18039957800E+03 0.  1.
</event>
<event>
 4   0  0.6712789E-04  0.2236068E+02  0.7957747E-01  0.1516063E+00
      -11   -1    0    0    0    0  0.00000000000E+00  0.00000000000E+00  0.50000000000E+03  0.50000000000E+03  0.00000000000E+00 0.  1.
       11   -1    0    0    0    0 -0.00000000000E+00 -0.00000000000E+00 -0.50000000000E+03  0.50000000000E+03  0.00000000000E+00 0. -1.
  1000024    1    1    2    0    0 -0.97181564178E+02  0.29079069854E+03  0.35135808726E+03  0.50000000000E+03  0.18039957800E+03 0. -1.
 -1000024    1    1    2    0    0  0.97181564178E+02 -0.29079069854E+03 -0.35135808726E+03  0.50000000000E+03  0.18039957800E+03 0.  1.
</event>
<event>
 4   0  0.1092222E-03  0.2236068E+02  0.7957747E-01  0.1516063E+00
      -11   -1    0    0    0    0  0.00000000000E+00  0.00000000000E+00  0.50000000000E+03  0.50000000000E+03  0.00000000000E+00 0.  1.
       11   -1    0    0    0    0 -0.00000000000E+00 -0.00000000000E+00 -0.50000000000E+03  0.50000000000E+03  0.00000000000E+00 0. -1.
  1000024    1    1    2    0    0  0.36201949913E+03  0.97069155683E+02  0.27744450531E+03  0.50000000000E+03  0.18039957800E+03 0.  1.
 -1000024    1    1    2    0    0 -0.36201949913E+03 -0.97069155683E+02 -0.27744450531E+03  0.50000000000E+03  0.18039957800E+03 0. -1.
</event>
<event>
 4   0  0.7366543E-04  0.2236068E+02  0.7957747E-01  0.1516063E+00
      -11   -1    0    0    0    0  0.00000000000E+00  0.00000000000E+00  0.50000000000E+03  0.50000000000E+03  0.00000000000E+00 0.  1.
       11   -1    0    0    0    0 -0.00000000000E+00 -0.00000000000E+00 -0.50000000000E+03  0.50000000000E+03  0.00000000000E+00 0. -1.
  1000024    1    1    2    0    0  0.13049601604E+03  0.34167647360E+03 -0.28928181665E+03  0.50000000000E+03  0.18039957800E+03 0. -1.
 -1000024    1    1    2    0    0 -0.13049601604E+03 -0.34167647360E+03  0.28928181665E+03  0.50000000000E+03  0.18039957800E+03 0.  1.
</event>
<event>
 4   0  0.7366543E-04  0.2236068E+02  0.7957747E-01  0.1516063E+00
      -11   -1    0    0    0    0  0.00000000000E+00  0.00000000000E+00  0.50000000000E+03  0.50000000000E+03  0.00000000000E+00 0.  1.
       11   -1    0    0    0    0 -0.00000000000E+00 -0.00000000000E+00 -0.50000000000E+03  0.50000000000E+03  0.00000000000E+00 0. -1.
  1000024    1    1    2    0    0 -0.20914552701E+03  0.38824967063E+03  0.15157946446E+03  0.50000000000E+03  0.18039957800E+03 0. -1.
 -1000024    1    1    2    0    0  0.20914552701E+03 -0.38824967063E+03 -0.15157946446E+03  0.50000000000E+03  0.18039957800E+03 0.  1.
</event>
<event>
 4   0  0.7366543E-04  0.2236068E+02  0.7957747E-01  0.1516063E+00
      -11   -1    0    0    0    0  0.00000000000E+00  0.00000000000E+00  0.50000000000E+03  0.50000000000E+03  0.00000000000E+00 0.  1.
       11   -1    0    0    0    0 -0.00000000000E+00 -0.00000000000E+00 -0.50000000000E+03  0.50000000000E+03  0.00000000000E+00 0. -1.
  1000024    1    1    2    0    0  0.20023603640E+03  0.23394498664E+03  0.35018747152E+03  0.50000000000E+03  0.18039957800E+03 0.  1.
 -1000024    1    1    2    0    0 -0.20023603640E+03 -0.23394498664E+03 -0.35018747152E+03  0.50000000000E+03  0.18039957800E+03 0. -1.
</event>
<event>
 4   0  0.1092222E-03  0.2236068E+02  0.7957747E-01  0.1516063E+00
      -11   -1    0    0    0    0  0.00000000000E+00  0.00000000000E+00  0.50000000000E+03  0.50000000000E+03  0.00000000000E+00 0.  1.
       11   -1    0    0    0    0 -0.00000000000E+00 -0.00000000000E+00 -0.50000000000E+03  0.50000000000E+03  0.00000000000E+00 0. -1.
  1000024    1    1    2    0    0  0.13637136836E+03 -0.44004244931E+03  0.72259843329E+02  0.50000000000E+03  0.18039957800E+03 0.  1.
 -1000024    1    1    2    0    0 -0.13637136836E+03  0.44004244931E+03 -0.72259843329E+02  0.50000000000E+03  0.18039957800E+03 0. -1.
</event>
<event>
 4   0  0.1092222E-03  0.2236068E+02  0.7957747E-01  0.1516063E+00
      -11   -1    0    0    0    0  0.00000000000E+00  0.00000000000E+00  0.50000000000E+03  0.50000000000E+03  0.00000000000E+00 0.  1.
       11   -1    0    0    0    0 -0.00000000000E+00 -0.00000000000E+00 -0.50000000000E+03  0.50000000000E+03  0.00000000000E+00 0. -1.
  1000024    1    1    2    0    0 -0.32214379361E+03 -0.19772111585E+03  0.27310387921E+03  0.50000000000E+03  0.18039957800E+03 0.  1.
 -1000024    1    1    2    0    0  0.32214379361E+03  0.19772111585E+03 -0.27310387921E+03  0.50000000000E+03  0.18039957800E+03 0. -1.
</event>
<event>
 4   0  0.1092222E-03  0.2236068E+02  0.7957747E-01  0.1516063E+00
      -11   -1    0    0    0    0  0.00000000000E+00  0.00000000000E+00  0.50000000000E+03  0.50000000000E+03  0.00000000000E+00 0.  1.
       11   -1    0    0    0    0 -0.00000000000E+00 -0.00000000000E+00 -0.50000000000E+03  0.50000000000E+03  0.00000000000E+00 0. -1.
  1000024    1    1    2    0    0 -0.57220257510E+02 -0.43139532060E+03  0.16757061722E+03  0.50000000000E+03  0.18039957800E+03 0.  1.
 -1000024    1    1    2    0    0  0.57220257510E+02  0.43139532060E+03 -0.16757061722E+03  0.50000000000E+03  0.18039957800E+03 0. -1.
</event>
<event>
 4   0  0.7366543E-04  0.2236068E+02  0.7957747E-01  0.1516063E+00
      -11   -1    0    0    0    0  0.00000000000E+00  0.00000000000E+00  0.50000000000E+03  0.50000000000E+03  0.00000000000E+00 0.  1.
       11   -1    0    0    0    0 -0.00000000000E+00 -0.00000000000E+00 -0.50000000000E+03  0.50000000000E+03  0.00000000000E+00 0. -1.
  1000024    1    1    2    0    0 -0.79616115511E+02 -0.39126428866E+03  0.24089317721E+03  0.50000000000E+03  0.18039957800E+03 0.  1.
 -1000024    1    1    2    0    0  0.79616115511E+02  0.39126428866E+03 -0.24089317721E+03  0.50000000000E+03  0.18039957800E+03 0. -1.
</event>
<event>
 4   0  0.1092222E-03  0.2236068E+02  0.7957747E-01  0.1516063E+00
      -11   -1    0    0    0    0  0.00000000000E+00  0.00000000000E+00  0.50000000000E+03  0.50000000000E+03  0.00000000000E+00 0.  1.
       11   -1    0    0    0    0 -0.00000000000E+00 -0.00000000000E+00 -0.50000000000E+03  0.50000000000E+03  0.00000000000E+00 0. -1.
  1000024    1    1    2    0    0  0.43584027247E+03 -0.69274929458E+02  0.15066596597E+03  0.50000000000E+03  0.18039957800E+03 0.  1.
 -1000024    1    1    2    0    0 -0.43584027247E+03  0.69274929458E+02 -0.15066596597E+03  0.50000000000E+03  0.18039957800E+03 0. -1.
</event>
<event>
 4   0  0.7366543E-04  0.2236068E+02  0.7957747E-01  0.1516063E+00
      -11   -1    0    0    0    0  0.00000000000E+00  0.00000000000E+00  0.50000000000E+03  0.50000000000E+03  0.00000000000E+00 0.  1.
       11   -1    0    0    0    0 -0.00000000000E+00 -0.00000000000E+00 -0.50000000000E+03  0.50000000000E+03  0.00000000000E+00 0. -1.
  1000024    1    1    2    0    0 -0.17084502849E+03  0.24695974728E+03  0.35676161750E+03  0.50000000000E+03  0.18039957800E+03 0.  1.
 -1000024    1    1    2    0    0  0.17084502849E+03 -0.24695974728E+03 -0.35676161750E+03  0.50000000000E+03  0.18039957800E+03 0. -1.
</event>
<event>
 4   0  0.6712789E-04  0.2236068E+02  0.7957747E-01  0.1516063E+00
      -11   -1    0    0    0    0  0.00000000000E+00  0.00000000000E+00  0.50000000000E+03  0.50000000000E+03  0.00000000000E+00 0.  1.
       11   -1    0    0    0    0 -0.00000000000E+00 -0.00000000000E+00 -0.50000000000E+03  0.50000000000E+03  0.00000000000E+00 0. -1.
  1000024    1    1    2    0    0  0.37821850906E+02 -0.45828193959E+03 -0.77480085820E+02  0.50000000000E+03  0.18039957800E+03 0. -1.
 -1000024    1    1    2    0    0 -0.37821850906E+02  0.45828193959E+03  0.77480085820E+02  0.50000000000E+03  0.18039957800E+03 0.  1.
</event>
<event>
 4   0  0.7366543E-04  0.2236068E+02  0.7957747E-01  0.1516063E+00
      -11   -1    0    0    0    0  0.00000000000E+00  0.00000000000E+00  0.50000000000E+03  0.50000000000E+03  0.00000000000E+00 0.  1.
       11   -1    0    0    0    0 -0.00000000000E+00 -0.00000000000E+00 -0.50000000000E+03  0.50000000000E+03  0.00000000000E+00 0. -1.
  1000024    1    1    2    0    0  0.18110964232E+03 -0.37038295070E+03  0.21788014950E+03  0.50000000000E+03  0.18039957800E+03 0. -1.
 -1000024    1    1    2    0    0 -0.18110964232E+03  0.37038295070E+03 -0.21788014950E+03  0.50000000000E+03  0.18039957800E+03 0.  1.
</event>
<event>
 4   0  0.7366543E-04  0.2236068E+02  0.7957747E-01  0.1516063E+00
      -11   -1    0    0    0    0  0.00000000000E+00  0.00000000000E+00  0.50000000000E+03  0.50000000000E+03  0.00000000000E+00 0.  1.
       11   -1    0    0    0    0 -0.00000000000E+00 -0.00000000000E+00 -0.50000000000E+03  0.50000000000E+03  0.00000000000E+00 0. -1.
  1000024    1    1    2    0    0 -0.16085508631E+03  0.41243668767E+03  0.14655242109E+03  0.50000000000E+03  0.18039957800E+03 0.  1.
 -1000024    1    1    2    0    0  0.16085508631E+03 -0.41243668767E+03 -0.14655242109E+03  0.50000000000E+03  0.18039957800E+03 0. -1.
</event>
<event>
 4   0  0.1092222E-03  0.2236068E+02  0.7957747E-01  0.1516063E+00
      -11   -1    0    0    0    0  0.00000000000E+00  0.00000000000E+00  0.50000000000E+03  0.50000000000E+03  0.00000000000E+00 0.  1.
       11   -1    0    0    0    0 -0.00000000000E+00 -0.00000000000E+00 -0.50000000000E+03  0.50000000000E+03  0.00000000000E+00 0. -1.
  1000024    1    1    2    0    0  0.20424027007E+03 -0.41424480920E+03  0.64367246271E+02  0.50000000000E+03  0.18039957800E+03 0. -1.
 -1000024    1    1    2    0    0 -0.20424027007E+03  0.41424480920E+03 -0.64367246271E+02  0.50000000000E+03  0.18039957800E+03 0.  1.
</event>
<event>
 4   0  0.6712789E-04  0.2236068E+02  0.7957747E-01  0.1516063E+00
      -11   -1    0    0    0    0  0.00000000000E+00  0.00000000000E+00  0.50000000000E+03  0.50000000000E+03  0.00000000000E+00 0.  1.
       11   -1    0    0    0    0 -0.00000000000E+00 -0.00000000000E+00 -0.50000000000E+03  0.50000000000E+03  0.00000000000E+00 0. -1.
  1000024    1    1    2    0    0  0.12444220153E+03  0.25590652954E+03  0.36943467471E+03  0.50000000000E+03  0.18039957800E+03 0. -1.
 -1000024    1    1    2    0    0 -0.12444220153E+03 -0.25590652954E+03 -0.36943467471E+03  0.50000000000E+03  0.18039957800E+03 0.  1.
</event>
<event>
 4   0  0.7366543E-04  0.2236068E+02  0.7957747E-01  0.1516063E+00
      -11   -1    0    0    0    0  0.00000000000E+00  0.00000000000E+00  0.50000000000E+03  0.50000000000E+03  0.00000000000E+00 0.  1.
       11   -1    0    0    0    0 -0.00000000000E+00 -0.00000000000E+00 -0.50000000000E+03  0.50000000000E+03  0.00000000000E+00 0. -1.
  1000024    1    1    2    0    0 -0.30875840064E+03 -0.47950478488E+01  0.34942989255E+03  0.50000000000E+03  0.18039957800E+03 0. -1.
 -1000024    1    1    2    0    0  0.30875840064E+03  0.47950478488E+01 -0.34942989255E+03  0.50000000000E+03  0.18039957800E+03 0.  1.
</event>
<event>
 4   0  0.1092222E-03  0.2236068E+02  0.7957747E-01  0.1516063E+00
      -11   -1    0    0    0    0  0.00000000000E+00  0.00000000000E+00  0.50000000000E+03  0.50000000000E+03  0.00000000000E+00 0.  1.
       11   -1    0    0    0    0 -0.00000000000E+00 -0.00000000000E+00 -0.50000000000E+03  0.50000000000E+03  0.00000000000E+00 0. -1.
  1000024    1    1    2    0    0 -0.90923030392E+02  0.43108876388E+03  0.15281188585E+03  0.50000000000E+03  0.18039957800E+03 0. -1.
 -1000024    1    1    2    0    0  0.90923030392E+02 -0.43108876388E+03 -0.15281188585E+03  0.50000000000E+03  0.18039957800E+03 0.  1.
</event>
<event>
 4   0  0.1092222E-03  0.2236068E+02  0.7957747E-01  0.1516063E+00
      -11   -1    0    0    0    0  0.00000000000E+00  0.00000000000E+00  0.50000000000E+03  0.50000000000E+03  0.00000000000E+00 0.  1.
       11   -1    0    0    0    0 -0.00000000000E+00 -0.00000000000E+00 -0.50000000000E+03  0.50000000000E+03  0.00000000000E+00 0. -1.
  1000024    1    1    2    0    0  0.27060749347E+03 -0.24455647251E+03  0.29055069866E+03  0.50000000000E+03  0.18039957800E+03 0.  1.
 -1000024    1    1    2    0    0 -0.27060749347E+03  0.24455647251E+03 -0.29055069866E+03  0.50000000000E+03  0.18039957800E+03 0. -1.
</event>
<event>
 4   0  0.7366543E-04  0.2236068E+02  0.7957747E-01  0.1516063E+00
      -11   -1    0    0    0    0  0.00000000000E+00  0.00000000000E+00  0.50000000000E+03  0.50000000000E+03  0.00000000000E+00 0.  1.
       11   -1    0    0    0    0 -0.00000000000E+00 -0.00000000000E+00 -0.50000000000E+03  0.50000000000E+03  0.00000000000E+00 0. -1.
  1000024    1    1    2    0    0 -0.44521099203E+03  0.70179767331E+02  0.11965769967E+03  0.50000000000E+03  0.18039957800E+03 0. -1.
 -1000024    1    1    2    0    0  0.44521099203E+03 -0.70179767331E+02 -0.11965769967E+03  0.50000000000E+03  0.18039957800E+03 0.  1.
</event>
<event>
 4   0  0.1092222E-03  0.2236068E+02  0.7957747E-01  0.1516063E+00
      -11   -1    0    0    0    0  0.00000000000E+00  0.00000000000E+00  0.50000000000E+03  0.50000000000E+03  0.00000000000E+00 0.  1.
       11   -1    0    0    0    0 -0.00000000000E+00 -0.00000000000E+00 -0.50000000000E+03  0.50000000000E+03  0.00000000000E+00 0. -1.
  1000024    1    1    2    0    0  0.42070663169E+03 -0.17246843227E+03 -0.10352082968E+03  0.50000000000E+03  0.18039957800E+03 0. -1.
 -1000024    1    1    2    0    0 -0.42070663169E+03  0.17246843227E+03  0.10352082968E+03  0.50000000000E+03  0.18039957800E+03 0.  1.
</event>
<event>
 4   0  0.1092222E-03  0.2236068E+02  0.7957747E-01  0.1516063E+00
      -11   -1    0    0    0    0  0.00000000000E+00  0.00000000000E+00  0.50000000000E+03  0.50000000000E+03  0.00000000000E+00 0.  1.
       11   -1    0    0    0    0 -0.00000000000E+00 -0.00000000000E+00 -0.50000000000E+03  0.50000000000E+03  0.00000000000E+00 0. -1.
  1000024    1    1    2    0    0 -0.14944022377E+03  0.39397865713E+02  0.43996752148E+03  0.50000000000E+03  0.18039957800E+03 0. -1.
 -1000024    1    1    2    0    0  0.14944022377E+03 -0.39397865713E+02 -0.43996752148E+03  0.50000000000E+03  0.18039957800E+03 0.  1.
</event>
<event>
 4   0  0.7366543E-04  0.2236068E+02  0.7957747E-01  0.1516063E+00
      -11   -1    0    0    0    0  0.00000000000E+00  0.00000000000E+00  0.50000000000E+03  0.50000000000E+03  0.00000000000E+00 0.  1.
       11   -1    0    0    0    0 -0.00000000000E+00 -0.00000000000E+00 -0.50000000000E+03  0.50000000000E+03  0.00000000000E+00 0. -1.
  1000024    1    1    2    0    0  0.24906698288E+03  0.44154729288E+02  0.39175501296E+03  0.50000000000E+03  0.18039957800E+03 0.  1.
 -1000024    1    1    2    0    0 -0.24906698288E+03 -0.44154729288E+02 -0.39175501296E+03  0.50000000000E+03  0.18039957800E+03 0. -1.
</event>
<event>
 4   0  0.6712789E-04  0.2236068E+02  0.7957747E-01  0.1516063E+00
      -11   -1    0    0    0    0  0.00000000000E+00  0.00000000000E+00  0.50000000000E+03  0.50000000000E+03  0.00000000000E+00 0.  1.
       11   -1    0    0    0    0 -0.00000000000E+00 -0.00000000000E+00 -0.50000000000E+03  0.50000000000E+03  0.00000000000E+00 0. -1.
  1000024    1    1    2    0    0  0.40453251977E+03  0.84272748807E+02  0.21611926456E+03  0.50000000000E+03  0.18039957800E+03 0. -1.
 -1000024    1    1    2    0    0 -0.40453251977E+03 -0.84272748807E+02 -0.21611926456E+03  0.50000000000E+03  0.18039957800E+03 0.  1.
</event>
<event>
 4   0  0.7366543E-04  0.2236068E+02  0.7957747E-01  0.1516063E+00
      -11   -1    0    0    0    0  0.00000000000E+00  0.00000000000E+00  0.50000000000E+03  0.50000000000E+03  0.00000000000E+00 0.  1.
       11   -1    0    0    0    0 -0.00000000000E+00 -0.00000000000E+00 -0.50000000000E+03  0.50000000000E+03  0.00000000000E+00 0. -1.
  1000024    1    1    2    0    0 -0.28784683792E+03 -0.25782798479E+03  0.26100751027E+03  0.50000000000E+03  0.18039957800E+03 0.  1.
 -1000024    1    1    2    0    0  0.28784683792E+03  0.25782798479E+03 -0.26100751027E+03  0.50000000000E+03  0.18039957800E+03 0. -1.
</event>
<event>
 4   0  0.1092222E-03  0.2236068E+02  0.7957747E-01  0.1516063E+00
      -11   -1    0    0    0    0  0.00000000000E+00  0.00000000000E+00  0.50000000000E+03  0.50000000000E+03  0.00000000000E+00 0.  1.
       11   -1    0    0    0    0 -0.00000000000E+00 -0.00000000000E+00 -0.50000000000E+03  0.50000000000E+03  0.00000000000E+00 0. -1.
  1000024    1    1    2    0    0  0.19989706119E+03 -0.36234500536E+03  0.21494942260E+03  0.50000000000E+03  0.18039957800E+03 0.  1.
 -1000024    1    1    2    0    0 -0.19989706119E+03  0.36234500536E+03 -0.21494942260E+03  0.50000000000E+03  0.18039957800E+03 0. -1.
</event>
<event>
 4   0  0.1092222E-03  0.2236068E+02  0.7957747E-01  0.1516063E+00
      -11   -1    0    0    0    0  0.00000000000E+00  0.00000000000E+00  0.50000000000E+03  0.50000000000E+03  0.00000000000E+00 0.  1.
       11   -1    0    0    0    0 -0.00000000000E+00 -0.00000000000E+00 -0.50000000000E+03  0.50000000000E+03  0.00000000000E+00 0. -1.
  1000024    1    1    2    0    0 -0.18656745099E+03  0.31798698394E+03  0.28553958839E+03  0.50000000000E+03  0.18039957800E+03 0. -1.
 -1000024    1    1    2    0    0  0.18656745099E+03 -0.31798698394E+03 -0.28553958839E+03  0.50000000000E+03  0.18039957800E+03 0.  1.
</event>
<event>
 4   0  0.7366543E-04  0.2236068E+02  0.7957747E-01  0.1516063E+00
      -11   -1    0    0    0    0  0.00000000000E+00  0.00000000000E+00  0.50000000000E+03  0.50000000000E+03  0.00000000000E+00 0.  1.
       11   -1    0    0    0    0 -0.00000000000E+00 -0.00000000000E+00 -0.50000000000E+03  0.50000000000E+03  0.00000000000E+00 0. -1.
  1000024    1    1    2    0    0  0.35597206019E+03 -0.14143192323E+03  0.26596408726E+03  0.50000000000E+03  0.18039957800E+03 0.  1.
 -1000024    1    1    2    0    0 -0.35597206019E+03  0.14143192323E+03 -0.26596408726E+03  0.50000000000E+03  0.18039957800E+03 0. -1.
</event>
<event>
 4   0  0.7366543E-04  0.2236068E+02  0.7957747E-01  0.1516063E+00
      -11   -1    0    0    0    0  0.00000000000E+00  0.00000000000E+00  0.50000000000E+03  0.50000000000E+03  0.00000000000E+00 0.  1.
       11   -1    0    0    0    0 -0.00000000000E+00 -0.00000000000E+00 -0.50000000000E+03  0.50000000000E+03  0.00000000000E+00 0. -1.
  1000024    1    1    2    0    0  0.33505546059E+03  0.30162132545E+03  0.11924096031E+03  0.50000000000E+03  0.18039957800E+03 0.  1.
 -1000024    1    1    2    0    0 -0.33505546059E+03 -0.30162132545E+03 -0.11924096031E+03  0.50000000000E+03  0.18039957800E+03 0. -1.
</event>
<event>
 4   0  0.7366543E-04  0.2236068E+02  0.7957747E-01  0.1516063E+00
      -11   -1    0    0    0    0  0.00000000000E+00  0.00000000000E+00  0.50000000000E+03  0.50000000000E+03  0.00000000000E+00 0.  1.
       11   -1    0    0    0    0 -0.00000000000E+00 -0.00000000000E+00 -0.50000000000E+03  0.50000000000E+03  0.00000000000E+00 0. -1.
  1000024    1    1    2    0    0  0.19444583245E+03  0.11611030153E+03  0.40763366934E+03  0.50000000000E+03  0.18039957800E+03 0. -1.
 -1000024    1    1    2    0    0 -0.19444583245E+03 -0.11611030153E+03 -0.40763366934E+03  0.50000000000E+03  0.18039957800E+03 0. -1.
</event>
<event>
 4   0  0.1092222E-03  0.2236068E+02  0.7957747E-01  0.1516063E+00
      -11   -1    0    0    0    0  0.00000000000E+00  0.00000000000E+00  0.50000000000E+03  0.50000000000E+03  0.00000000000E+00 0.  1.
       11   -1    0    0    0    0 -0.00000000000E+00 -0.00000000000E+00 -0.50000000000E+03  0.50000000000E+03  0.00000000000E+00 0. -1.
  1000024    1    1    2    0    0 -0.41170584630E+03 -0.10553608237E+03  0.19187606338E+03  0.50000000000E+03  0.18039957800E+03 0.  1.
 -1000024    1    1    2    0    0  0.41170584630E+03  0.10553608237E+03 -0.19187606338E+03  0.50000000000E+03  0.18039957800E+03 0. -1.
</event>
<event>
 4   0  0.6712789E-04  0.2236068E+02  0.7957747E-01  0.1516063E+00
      -11   -1    0    0    0    0  0.00000000000E+00  0.00000000000E+00  0.50000000000E+03  0.50000000000E+03  0.00000000000E+00 0.  1.
       11   -1    0    0    0    0 -0.00000000000E+00 -0.00000000000E+00 -0.50000000000E+03  0.50000000000E+03  0.00000000000E+00 0. -1.
  1000024    1    1    2    0    0 -0.21989197540E+03  0.34022910367E+03 -0.23097114198E+03  0.50000000000E+03  0.18039957800E+03 0.  1.
 -1000024    1    1    2    0    0  0.21989197540E+03 -0.34022910367E+03  0.23097114198E+03  0.50000000000E+03  0.18039957800E+03 0. -1.
</event>
<event>
 4   0  0.1092222E-03  0.2236068E+02  0.7957747E-01  0.1516063E+00
      -11   -1    0    0    0    0  0.00000000000E+00  0.00000000000E+00  0.50000000000E+03  0.50000000000E+03  0.00000000000E+00 0.  1.
       11   -1    0    0    0    0 -0.00000000000E+00 -0.00000000000E+00 -0.50000000000E+03  0.50000000000E+03  0.00000000000E+00 0. -1.
  1000024    1    1    2    0    0  0.29694370618E+03  0.53955353935E+02  0.35548452484E+03  0.50000000000E+03  0.18039957800E+03 0. -1.
 -1000024    1    1    2    0    0 -0.29694370618E+03 -0.53955353935E+02 -0.35548452484E+03  0.50000000000E+03  0.18039957800E+03 0.  1.
</event>
<event>
 4   0  0.6712789E-04  0.2236068E+02  0.7957747E-01  0.1516063E+00
      -11   -1    0    0    0    0  0.00000000000E+00  0.00000000000E+00  0.50000000000E+03  0.50000000000E+03  0.00000000000E+00 0.  1.
       11   -1    0    0    0    0 -0.00000000000E+00 -0.00000000000E+00 -0.50000000000E+03  0.50000000000E+03  0.00000000000E+00 0. -1.
  1000024    1    1    2    0    0 -0.16854947342E+03 -0.27410019369E+03  0.33751466796E+03  0.50000000000E+03  0.18039957800E+03 0.  1.
 -1000024    1    1    2    0    0  0.16854947342E+03  0.27410019369E+03 -0.33751466796E+03  0.50000000000E+03  0.18039957800E+03 0. -1.
</event>
<event>
 4   0  0.1092222E-03  0.2236068E+02  0.7957747E-01  0.1516063E+00
      -11   -1    0    0    0    0  0.00000000000E+00  0.00000000000E+00  0.50000000000E+03  0.50000000000E+03  0.00000000000E+00 0.  1.
       11   -1    0    0    0    0 -0.00000000000E+00 -0.00000000000E+00 -0.50000000000E+03  0.50000000000E+03  0.00000000000E+00 0. -1.
  1000024    1    1    2    0    0 -0.38352955876E+03  0.23371526505E+03 -0.12545216098E+03  0.50000000000E+03  0.18039957800E+03 0. -1.
 -1000024    1    1    2    0    0  0.38352955876E+03 -0.23371526505E+03  0.12545216098E+03  0.50000000000E+03  0.18039957800E+03 0.  1.
</event>
<event>
 4   0  0.1092222E-03  0.2236068E+02  0.7957747E-01  0.1516063E+00
      -11   -1    0    0    0    0  0.00000000000E+00  0.00000000000E+00  0.50000000000E+03  0.50000000000E+03  0.00000000000E+00 0.  1.
       11   -1    0    0    0    0 -0.00000000000E+00 -0.00000000000E+00 -0.50000000000E+03  0.50000000000E+03  0.00000000000E+00 0. -1.
  1000024    1    1    2    0    0  0.19066777563E+03 -0.32983799973E+02  0.42428040319E+03  0.50000000000E+03  0.18039957800E+03 0. -1.
 -1000024    1    1    2    0    0 -0.19066777563E+03  0.32983799973E+02 -0.42428040319E+03  0.50000000000E+03  0.18039957800E+03 0.  1.
</event>
<event>
 4   0  0.7366543E-04  0.2236068E+02  0.7957747E-01  0.1516063E+00
      -11   -1    0    0    0    0  0.00000000000E+00  0.00000000000E+00  0.50000000000E+03  0.50000000000E+03  0.00000000000E+00 0.  1.
       11   -1    0    0    0    0 -0.00000000000E+00 -0.00000000000E+00 -0.50000000000E+03  0.50000000000E+03  0.00000000000E+00 0. -1.
  1000024    1    1    2    0    0  0.28400424575E+03  0.13610268453E+03  0.34390934840E+03  0.50000000000E+03  0.18039957800E+03 0. -1.
 -1000024    1    1    2    0    0 -0.28400424575E+03 -0.13610268453E+03 -0.34390934840E+03  0.50000000000E+03  0.18039957800E+03 0.  1.
</event>
<event>
 4   0  0.1092222E-03  0.2236068E+02  0.7957747E-01  0.1516063E+00
      -11   -1    0    0    0    0  0.00000000000E+00  0.00000000000E+00  0.50000000000E+03  0.50000000000E+03  0.00000000000E+00 0.  1.
       11   -1    0    0    0    0 -0.00000000000E+00 -0.00000000000E+00 -0.50000000000E+03  0.50000000000E+03  0.00000000000E+00 0. -1.
  1000024    1    1    2    0    0 -0.73531302043E+02 -0.40064389780E+03  0.22701014741E+03  0.50000000000E+03  0.18039957800E+03 0. -1.
 -1000024    1    1    2    0    0  0.73531302043E+02  0.40064389780E+03 -0.22701014741E+03  0.50000000000E+03  0.18039957800E+03 0.  1.
</event>
<event>
 4   0  0.1092222E-03  0.2236068E+02  0.7957747E-01  0.1516063E+00
      -11   -1    0    0    0    0  0.00000000000E+00  0.00000000000E+00  0.50000000000E+03  0.50000000000E+03  0.00000000000E+00 0.  1.
       11   -1    0    0    0    0 -0.00000000000E+00 -0.00000000000E+00 -0.50000000000E+03  0.50000000000E+03  0.00000000000E+00 0. -1.
  1000024    1    1    2    0    0 -0.13088370855E+03  0.37940723373E+03  0.23743546089E+03  0.50000000000E+03  0.18039957800E+03 0. -1.
 -1000024    1    1    2    0    0  0.13088370855E+03 -0.37940723373E+03 -0.23743546089E+03  0.50000000000E+03  0.18039957800E+03 0.  1.
</event>
<event>
 4   0  0.1092222E-03  0.2236068E+02  0.7957747E-01  0.1516063E+00
      -11   -1    0    0    0    0  0.00000000000E+00  0.00000000000E+00  0.50000000000E+03  0.50000000000E+03  0.00000000000E+00 0.  1.
       11   -1    0    0    0    0 -0.00000000000E+00 -0.00000000000E+00 -0.50000000000E+03  0.50000000000E+03  0.00000000000E+00 0. -1.
  1000024    1    1    2    0    0 -0.35595313539E+03  0.30005560196E+03 -0.26832692663E+02  0.50000000000E+03  0.18039957800E+03 0. -1.
 -1000024    1    1    2    0    0  0.35595313539E+03 -0.30005560196E+03  0.26832692663E+02  0.50000000000E+03  0.18039957800E+03 0.  1.
</event>
<event>
 4   0  0.7366543E-04  0.2236068E+02  0.7957747E-01  0.1516063E+00
      -11   -1    0    0    0    0  0.00000000000E+00  0.00000000000E+00  0.50000000000E+03  0.50000000000E+03  0.00000000000E+00 0.  1.
       11   -1    0    0    0    0 -0.00000000000E+00 -0.00000000000E+00 -0.50000000000E+03  0.50000000000E+03  0.00000000000E+00 0. -1.
  1000024    1    1    2    0    0  0.24838458132E+03 -0.15105344473E+03  0.36461479517E+03  0.50000000000E+03  0.18039957800E+03 0. -1.
 -1000024    1    1    2    0    0 -0.24838458132E+03  0.15105344473E+03 -0.36461479517E+03  0.50000000000E+03  0.18039957800E+03 0.  1.
</event>
<event>
 4   0  0.1092222E-03  0.2236068E+02  0.7957747E-01  0.1516063E+00
      -11   -1    0    0    0    0  0.00000000000E+00  0.00000000000E+00  0.50000000000E+03  0.50000000000E+03  0.00000000000E+00 0.  1.
       11   -1    0    0    0    0 -0.00000000000E+00 -0.00000000000E+00 -0.50000000000E+03  0.50000000000E+03  0.00000000000E+00 0. -1.
  1000024    1    1    2    0    0 -0.23590608443E+03 -0.28686553878E+03 -0.28197956352E+03  0.50000000000E+03  0.18039957800E+03 0.  1.
 -1000024    1    1    2    0    0  0.23590608443E+03  0.28686553878E+03  0.28197956352E+03  0.50000000000E+03  0.18039957800E+03 0. -1.
</event>
<event>
 4   0  0.1092222E-03  0.2236068E+02  0.7957747E-01  0.1516063E+00
      -11   -1    0    0    0    0  0.00000000000E+00  0.00000000000E+00  0.50000000000E+03  0.50000000000E+03  0.00000000000E+00 0.  1.
       11   -1    0    0    0    0 -0.00000000000E+00 -0.00000000000E+00 -0.50000000000E+03  0.50000000000E+03  0.00000000000E+00 0. -1.
  1000024    1    1    2    0    0 -0.14463739791E+03  0.36187874916E+03  0.25608550582E+03  0.50000000000E+03  0.18039957800E+03 0.  1.
 -1000024    1    1    2    0    0  0.14463739791E+03 -0.36187874916E+03 -0.25608550582E+03  0.50000000000E+03  0.18039957800E+03 0. -1.
</event>
<event>
 4   0  0.1092222E-03  0.2236068E+02  0.7957747E-01  0.1516063E+00
      -11   -1    0    0    0    0  0.00000000000E+00  0.00000000000E+00  0.50000000000E+03  0.50000000000E+03  0.00000000000E+00 0.  1.
       11   -1    0    0    0    0 -0.00000000000E+00 -0.00000000000E+00 -0.50000000000E+03  0.50000000000E+03  0.00000000000E+00 0. -1.
  1000024    1    1    2    0    0  0.86338250836E+02  0.33938645960E+03  0.30792617579E+03  0.50000000000E+03  0.18039957800E+03 0.  1.
 -1000024    1    1    2    0    0 -0.86338250836E+02 -0.33938645960E+03 -0.30792617579E+03  0.50000000000E+03  0.18039957800E+03 0. -1.
</event>
<event>
 4   0  0.6712789E-04  0.2236068E+02  0.7957747E-01  0.1516063E+00
      -11   -1    0    0    0    0  0.00000000000E+00  0.00000000000E+00  0.50000000000E+03  0.50000000000E+03  0.00000000000E+00 0.  1.
       11   -1    0    0    0    0 -0.00000000000E+00 -0.00000000000E+00 -0.50000000000E+03  0.50000000000E+03  0.00000000000E+00 0. -1.
  1000024    1    1    2    0    0 -0.19489534738E+03  0.20634968087E+03  0.36998865528E+03  0.50000000000E+03  0.18039957800E+03 0.  1.
 -1000024    1    1    2    0    0  0.19489534738E+03 -0.20634968087E+03 -0.36998865528E+03  0.50000000000E+03  0.18039957800E+03 0. -1.
</event>
<event>
 4   0  0.1092222E-03  0.2236068E+02  0.7957747E-01  0.1516063E+00
      -11   -1    0    0    0    0  0.00000000000E+00  0.00000000000E+00  0.50000000000E+03  0.50000000000E+03  0.00000000000E+00 0.  1.
       11   -1    0    0    0    0 -0.00000000000E+00 -0.00000000000E+00 -0.50000000000E+03  0.50000000000E+03  0.00000000000E+00 0. -1.
  1000024    1    1    2    0    0  0.27655217095E+03 -0.35306992248E+03 -0.12773612976E+03  0.50000000000E+03  0.18039957800E+03 0.  1.
 -1000024    1    1    2    0    0 -0.27655217095E+03  0.35306992248E+03  0.12773612976E+03  0.50000000000E+03  0.18039957800E+03 0. -1.
</event>
<event>
 4   0  0.7366543E-04  0.2236068E+02  0.7957747E-01  0.1516063E+00
      -11   -1    0    0    0    0  0.00000000000E+00  0.00000000000E+00  0.50000000000E+03  0.50000000000E+03  0.00000000000E+00 0.  1.
       11   -1    0    0    0    0 -0.00000000000E+00 -0.00000000000E+00 -0.50000000000E+03  0.50000000000E+03  0.00000000000E+00 0. -1.
  1000024    1    1    2    0    0 -0.39522817137E+03 -0.19577141828E+03  0.15140751830E+03  0.50000000000E+03  0.18039957800E+03 0. -1.
 -1000024    1    1    2    0    0  0.39522817137E+03  0.19577141828E+03 -0.15140751830E+03  0.50000000000E+03  0.18039957800E+03 0.  1.
</event>
<event>
 4   0  0.6712789E-04  0.2236068E+02  0.7957747E-01  0.1516063E+00
      -11   -1    0    0    0    0  0.00000000000E+00  0.00000000000E+00  0.50000000000E+03  0.50000000000E+03  0.00000000000E+00 0.  1.
       11   -1    0    0    0    0 -0.00000000000E+00 -0.00000000000E+00 -0.50000000000E+03  0.50000000000E+03  0.00000000000E+00 0. -1.
  1000024    1    1    2    0    0 -0.21215043162E+03 -0.28219634262E+02  0.41430886891E+03  0.50000000000E+03  0.18039957800E+03 0. -1.
 -1000024    1    1    2    0    0  0.21215043162E+03  0.28219634262E+02 -0.41430886891E+03  0.50000000000E+03  0.18039957800E+03 0.  1.
</event>
<event>
 4   0  0.6712789E-04  0.2236068E+02  0.7957747E-01  0.1516063E+00
      -11   -1    0    0    0    0  0.00000000000E+00  0.00000000000E+00  0.50000000000E+03  0.50000000000E+03  0.00000000000E+00 0.  1.
       11   -1    0    0    0    0 -0.00000000000E+00 -0.00000000000E+00 -0.50000000000E+03  0.50000000000E+03  0.00000000000E+00 0. -1.
  1000024    1    1    2    0    0  0.31842162986E+03 -0.33298878698E+03  0.71986982422E+02  0.50000000000E+03  0.18039957800E+03 0. -1.
 -1000024    1    1    2    0    0 -0.31842162986E+03  0.33298878698E+03 -0.71986982422E+02  0.50000000000E+03  0.18039957800E+03 0.  1.
</event>
<event>
 4   0  0.1092222E-03  0.2236068E+02  0.7957747E-01  0.1516063E+00
      -11   -1    0    0    0    0  0.00000000000E+00  0.00000000000E+00  0.50000000000E+03  0.50000000000E+03  0.00000000000E+00 0.  1.
       11   -1    0    0    0    0 -0.00000000000E+00 -0.00000000000E+00 -0.50000000000E+03  0.50000000000E+03  0.00000000000E+00 0. -1.
  1000024    1    1    2    0    0 -0.12668033075E+03 -0.29598089324E+03  0.33734759061E+03  0.50000000000E+03  0.18039957800E+03 0. -1.
 -1000024    1    1    2    0    0  0.12668033075E+03  0.29598089324E+03 -0.33734759061E+03  0.50000000000E+03  0.18039957800E+03 0.  1.
</event>
<event>
 4   0  0.1092222E-03  0.2236068E+02  0.7957747E-01  0.1516063E+00
      -11   -1    0    0    0    0  0.00000000000E+00  0.00000000000E+00  0.50000000000E+03  0.50000000000E+03  0.00000000000E+00 0.  1.
       11   -1    0    0    0    0 -0.00000000000E+00 -0.00000000000E+00 -0.50000000000E+03  0.50000000000E+03  0.00000000000E+00 0. -1.
  1000024    1    1    2    0    0  0.27027840191E+03  0.31050894403E+03  0.21906568284E+03  0.50000000000E+03  0.18039957800E+03 0.  1.
 -1000024    1    1    2    0    0 -0.27027840191E+03 -0.31050894403E+03 -0.21906568284E+03  0.50000000000E+03  0.18039957800E+03 0. -1.
</event>
<event>
 4   0  0.6712789E-04  0.2236068E+02  0.7957747E-01  0.1516063E+00
      -11   -1    0    0    0    0  0.00000000000E+00  0.00000000000E+00  0.50000000000E+03  0.50000000000E+03  0.00000000000E+00 0.  1.
       11   -1    0    0    0    0 -0.00000000000E+00 -0.00000000000E+00 -0.50000000000E+03  0.50000000000E+03  0.00000000000E+00 0. -1.
  1000024    1    1    2    0    0  0.96975741912E+02  0.10372722077E+03  0.44417604777E+03  0.50000000000E+03  0.18039957800E+03 0.  1.
 -1000024    1    1    2    0    0 -0.96975741912E+02 -0.10372722077E+03 -0.44417604777E+03  0.50000000000E+03  0.18039957800E+03 0.  1.
</event>
<event>
 4   0  0.7366543E-04  0.2236068E+02  0.7957747E-01  0.1516063E+00
      -11   -1    0    0    0    0  0.00000000000E+00  0.00000000000E+00  0.50000000000E+03  0.50000000000E+03  0.00000000000E+00 0.  1.
       11   -1    0    0    0    0 -0.00000000000E+00 -0.00000000000E+00 -0.50000000000E+03  0.50000000000E+03  0.00000000000E+00 0. -1.
  1000024    1    1    2    0    0  0.36628112204E+03 -0.28314956201E+03  0.55861054653E+02  0.50000000000E+03  0.18039957800E+03 0. -1.
 -1000024    1    1    2    0    0 -0.36628112204E+03  0.28314956201E+03 -0.55861054653E+02  0.50000000000E+03  0.18039957800E+03 0.  1.
</event>
<event>
 4   0  0.6712789E-04  0.2236068E+02  0.7957747E-01  0.1516063E+00
      -11   -1    0    0    0    0  0.00000000000E+00  0.00000000000E+00  0.50000000000E+03  0.50000000000E+03  0.00000000000E+00 0.  1.
       11   -1    0    0    0    0 -0.00000000000E+00 -0.00000000000E+00 -0.50000000000E+03  0.50000000000E+03  0.00000000000E+00 0. -1.
  1000024    1    1    2    0    0 -0.33889903239E+03 -0.29801625326E+03  0.11742977004E+03  0.50000000000E+03  0.18039957800E+03 0. -1.
 -1000024    1    1    2    0    0  0.33889903239E+03  0.29801625326E+03 -0.11742977004E+03  0.50000000000E+03  0.18039957800E+03 0.  1.
</event>
<event>
 4   0  0.7366543E-04  0.2236068E+02  0.7957747E-01  0.1516063E+00
      -11   -1    0    0    0    0  0.00000000000E+00  0.00000000000E+00  0.50000000000E+03  0.50000000000E+03  0.00000000000E+00 0.  1.
       11   -1    0    0    0    0 -0.00000000000E+00 -0.00000000000E+00 -0.50000000000E+03  0.50000000000E+03  0.00000000000E+00 0. -1.
  1000024    1    1    2    0    0 -0.28593089933E+03  0.36215314058E+03  0.67413765912E+02  0.50000000000E+03  0.18039957800E+03 0.  1.
 -1000024    1    1    2    0    0  0.28593089933E+03 -0.36215314058E+03 -0.67413765912E+02  0.50000000000E+03  0.18039957800E+03 0. -1.
</event>
<event>
 4   0  0.1092222E-03  0.2236068E+02  0.7957747E-01  0.1516063E+00
      -11   -1    0    0    0    0  0.00000000000E+00  0.00000000000E+00  0.50000000000E+03  0.50000000000E+03  0.00000000000E+00 0.  1.
       11   -1    0    0    0    0 -0.00000000000E+00 -0.00000000000E+00 -0.50000000000E+03  0.50000000000E+03  0.00000000000E+00 0. -1.
  1000024    1    1    2    0    0 -0.13464460401E+03 -0.40293650665E+03  0.19227322871E+03  0.50000000000E+03  0.18039957800E+03 0. -1.
 -1000024    1    1    2    0    0  0.13464460401E+03  0.40293650665E+03 -0.19227322871E+03  0.50000000000E+03  0.18039957800E+03 0.  1.
</event>
<event>
 4   0  0.1092222E-03  0.2236068E+02  0.7957747E-01  0.1516063E+00
      -11   -1    0    0    0    0  0.00000000000E+00  0.00000000000E+00  0.50000000000E+03  0.50000000000E+03  0.00000000000E+00 0.  1.
       11   -1    0    0    0    0 -0.00000000000E+00 -0.00000000000E+00 -0.50000000000E+03  0.50000000000E+03  0.00000000000E+00 0. -1.
  1000024    1    1    2    0    0  0.37676149172E+03  0.17418225765E+03  0.21252602601E+03  0.50000000000E+03  0.18039957800E+03 0. -1.
 -1000024    1    1    2    0    0 -0.37676149172E+03 -0.17418225765E+03 -0.21252602601E+03  0.50000000000E+03  0.18039957800E+03 0.  1.
</event>
<event>
 4   0  0.6712789E-04  0.2236068E+02  0.7957747E-01  0.1516063E+00
      -11   -1    0    0    0    0  0.00000000000E+00  0.00000000000E+00  0.50000000000E+03  0.50000000000E+03  0.00000000000E+00 0. -1.
       11   -1    0    0    0    0 -0.00000000000E+00 -0.00000000000E+00 -0.50000000000E+03  0.50000000000E+03  0.00000000000E+00 0.  1.
  1000024    1    1    2    0    0 -0.11880900699E+03 -0.38857739083E+03 -0.22879690437E+03  0.50000000000E+03  0.18039957800E+03 0.  1.
 -1000024    1    1    2    0    0  0.11880900699E+03  0.38857739083E+03  0.22879690437E+03  0.50000000000E+03  0.18039957800E+03 0. -1.
</event>
<event>
 4   0  0.7366543E-04  0.2236068E+02  0.7957747E-01  0.1516063E+00
      -11   -1    0    0    0    0  0.00000000000E+00  0.00000000000E+00  0.50000000000E+03  0.50000000000E+03  0.00000000000E+00 0.  1.
       11   -1    0    0    0    0 -0.00000000000E+00 -0.00000000000E+00 -0.50000000000E+03  0.50000000000E+03  0.00000000000E+00 0. -1.
  1000024    1    1    2    0    0 -0.18153655170E+03 -0.35063357991E+03  0.24810595578E+03  0.50000000000E+03  0.18039957800E+03 0.  1.
 -1000024    1    1    2    0    0  0.18153655170E+03  0.35063357991E+03 -0.24810595578E+03  0.50000000000E+03  0.18039957800E+03 0. -1.
</event>
<event>
 4   0  0.6712789E-04  0.2236068E+02  0.7957747E-01  0.1516063E+00
      -11   -1    0    0    0    0  0.00000000000E+00  0.00000000000E+00  0.50000000000E+03  0.50000000000E+03  0.00000000000E+00 0.  1.
       11   -1    0    0    0    0 -0.00000000000E+00 -0.00000000000E+00 -0.50000000000E+03  0.50000000000E+03  0.00000000000E+00 0. -1.
  1000024    1    1    2    0    0  0.29818665825E+03 -0.13668762084E+03  0.33144713516E+03  0.50000000000E+03  0.18039957800E+03 0.  1.
 -1000024    1    1    2    0    0 -0.29818665825E+03  0.13668762084E+03 -0.33144713516E+03  0.50000000000E+03  0.18039957800E+03 0. -1.
</event>
<event>
 4   0  0.1092222E-03  0.2236068E+02  0.7957747E-01  0.1516063E+00
      -11   -1    0    0    0    0  0.00000000000E+00  0.00000000000E+00  0.50000000000E+03  0.50000000000E+03  0.00000000000E+00 0.  1.
       11   -1    0    0    0    0 -0.00000000000E+00 -0.00000000000E+00 -0.50000000000E+03  0.50000000000E+03  0.00000000000E+00 0. -1.
  1000024    1    1    2    0    0 -0.33790766143E+03 -0.25906249185E+03 -0.19016053723E+03  0.50000000000E+03  0.18039957800E+03 0.  1.
 -1000024    1    1    2    0    0  0.33790766143E+03  0.25906249185E+03  0.19016053723E+03  0.50000000000E+03  0.18039957800E+03 0. -1.
</event>
<event>
 4   0  0.1092222E-03  0.2236068E+02  0.7957747E-01  0.1516063E+00
      -11   -1    0    0    0    0  0.00000000000E+00  0.00000000000E+00  0.50000000000E+03  0.50000000000E+03  0.00000000000E+00 0.  1.
       11   -1    0    0    0    0 -0.00000000000E+00 -0.00000000000E+00 -0.50000000000E+03  0.50000000000E+03  0.00000000000E+00 0. -1.
  1000024    1    1    2    0    0 -0.44723357914E+03  0.83303366955E+02  0.10246300308E+03  0.50000000000E+03  0.18039957800E+03 0. -1.
 -1000024    1    1    2    0    0  0.44723357914E+03 -0.83303366955E+02 -0.10246300308E+03  0.50000000000E+03  0.18039957800E+03 0. -1.
</event>
<event>
 4   0  0.7366543E-04  0.2236068E+02  0.7957747E-01  0.1516063E+00
      -11   -1    0    0    0    0  0.00000000000E+00  0.00000000000E+00  0.50000000000E+03  0.50000000000E+03  0.00000000000E+00 0.  1.
       11   -1    0    0    0    0 -0.00000000000E+00 -0.00000000000E+00 -0.50000000000E+03  0.50000000000E+03  0.00000000000E+00 0. -1.
  1000024    1    1    2    0    0 -0.29785705413E+03 -0.32496933414E+03  0.15209240425E+03  0.50000000000E+03  0.18039957800E+03 0.  1.
 -1000024    1    1    2    0    0  0.29785705413E+03  0.32496933414E+03 -0.15209240425E+03  0.50000000000E+03  0.18039957800E+03 0. -1.
</event>
<event>
 4   0  0.1092222E-03  0.2236068E+02  0.7957747E-01  0.1516063E+00
      -11   -1    0    0    0    0  0.00000000000E+00  0.00000000000E+00  0.50000000000E+03  0.50000000000E+03  0.00000000000E+00 0.  1.
       11   -1    0    0    0    0 -0.00000000000E+00 -0.00000000000E+00 -0.50000000000E+03  0.50000000000E+03  0.00000000000E+00 0. -1.
  1000024    1    1    2    0    0  0.16796736467E+03 -0.39220087029E+03  0.18820582884E+03  0.50000000000E+03  0.18039957800E+03 0. -1.
 -1000024    1    1    2    0    0 -0.16796736467E+03  0.39220087029E+03 -0.18820582884E+03  0.50000000000E+03  0.18039957800E+03 0.  1.
</event>
<event>
 4   0  0.1092222E-03  0.2236068E+02  0.7957747E-01  0.1516063E+00
      -11   -1    0    0    0    0  0.00000000000E+00  0.00000000000E+00  0.50000000000E+03  0.50000000000E+03  0.00000000000E+00 0.  1.
       11   -1    0    0    0    0 -0.00000000000E+00 -0.00000000000E+00 -0.50000000000E+03  0.50000000000E+03  0.00000000000E+00 0. -1.
  1000024    1    1    2    0    0 -0.16620342800E+03 -0.30743869946E+03  0.30872942661E+03  0.50000000000E+03  0.18039957800E+03 0.  1.
 -1000024    1    1    2    0    0  0.16620342800E+03  0.30743869946E+03 -0.30872942661E+03  0.50000000000E+03  0.18039957800E+03 0.  1.
</event>
<event>
 4   0  0.1092222E-03  0.2236068E+02  0.7957747E-01  0.1516063E+00
      -11   -1    0    0    0    0  0.00000000000E+00  0.00000000000E+00  0.50000000000E+03  0.50000000000E+03  0.00000000000E+00 0.  1.
       11   -1    0    0    0    0 -0.00000000000E+00 -0.00000000000E+00 -0.50000000000E+03  0.50000000000E+03  0.00000000000E+00 0. -1.
  1000024    1    1    2    0    0 -0.21259453043E+03 -0.39858389059E+03  0.11571706896E+03  0.50000000000E+03  0.18039957800E+03 0.  1.
 -1000024    1    1    2    0    0  0.21259453043E+03  0.39858389059E+03 -0.11571706896E+03  0.50000000000E+03  0.18039957800E+03 0. -1.
</event>
<event>
 4   0  0.6712789E-04  0.2236068E+02  0.7957747E-01  0.1516063E+00
      -11   -1    0    0    0    0  0.00000000000E+00  0.00000000000E+00  0.50000000000E+03  0.50000000000E+03  0.00000000000E+00 0.  1.
       11   -1    0    0    0    0 -0.00000000000E+00 -0.00000000000E+00 -0.50000000000E+03  0.50000000000E+03  0.00000000000E+00 0. -1.
  1000024    1    1    2    0    0  0.25467143015E+02  0.45567832786E+03 -0.95732326851E+02  0.50000000000E+03  0.18039957800E+03 0. -1.
 -1000024    1    1    2    0    0 -0.25467143015E+02 -0.45567832786E+03  0.95732326851E+02  0.50000000000E+03  0.18039957800E+03 0.  1.
</event>
<event>
 4   0  0.7366543E-04  0.2236068E+02  0.7957747E-01  0.1516063E+00
      -11   -1    0    0    0    0  0.00000000000E+00  0.00000000000E+00  0.50000000000E+03  0.50000000000E+03  0.00000000000E+00 0.  1.
       11   -1    0    0    0    0 -0.00000000000E+00 -0.00000000000E+00 -0.50000000000E+03  0.50000000000E+03  0.00000000000E+00 0. -1.
  1000024    1    1    2    0    0  0.44345551723E+03 -0.14325409955E+03  0.16776753411E+02  0.50000000000E+03  0.18039957800E+03 0. -1.
 -1000024    1    1    2    0    0 -0.44345551723E+03  0.14325409955E+03 -0.16776753411E+02  0.50000000000E+03  0.18039957800E+03 0.  1.
</event>
<event>
 4   0  0.1092222E-03  0.2236068E+02  0.7957747E-01  0.1516063E+00
      -11   -1    0    0    0    0  0.00000000000E+00  0.00000000000E+00  0.50000000000E+03  0.50000000000E+03  0.00000000000E+00 0.  1.
       11   -1    0    0    0    0 -0.00000000000E+00 -0.00000000000E+00 -0.50000000000E+03  0.50000000000E+03  0.00000000000E+00 0. -1.
  1000024    1    1    2    0    0  0.19110582544E+03 -0.18514308411E+03  0.38295769237E+03  0.50000000000E+03  0.18039957800E+03 0.  1.
 -1000024    1    1    2    0    0 -0.19110582544E+03  0.18514308411E+03 -0.38295769237E+03  0.50000000000E+03  0.18039957800E+03 0. -1.
</event>
<event>
 4   0  0.7366543E-04  0.2236068E+02  0.7957747E-01  0.1516063E+00
      -11   -1    0    0    0    0  0.00000000000E+00  0.00000000000E+00  0.50000000000E+03  0.50000000000E+03  0.00000000000E+00 0.  1.
       11   -1    0    0    0    0 -0.00000000000E+00 -0.00000000000E+00 -0.50000000000E+03  0.50000000000E+03  0.00000000000E+00 0. -1.
  1000024    1    1    2    0    0 -0.34107727403E+03  0.31120836941E+03  0.65357755550E+02  0.50000000000E+03  0.18039957800E+03 0.  1.
 -1000024    1    1    2    0    0  0.34107727403E+03 -0.31120836941E+03 -0.65357755550E+02  0.50000000000E+03  0.18039957800E+03 0. -1.
</event>
<event>
 4   0  0.7366543E-04  0.2236068E+02  0.7957747E-01  0.1516063E+00
      -11   -1    0    0    0    0  0.00000000000E+00  0.00000000000E+00  0.50000000000E+03  0.50000000000E+03  0.00000000000E+00 0.  1.
       11   -1    0    0    0    0 -0.00000000000E+00 -0.00000000000E+00 -0.50000000000E+03  0.50000000000E+03  0.00000000000E+00 0. -1.
  1000024    1    1    2    0    0 -0.35374793868E+03 -0.28721505071E+02  0.30247886419E+03  0.50000000000E+03  0.18039957800E+03 0.  1.
 -1000024    1    1    2    0    0  0.35374793868E+03  0.28721505071E+02 -0.30247886419E+03  0.50000000000E+03  0.18039957800E+03 0. -1.
</event>
<event>
 4   0  0.1092222E-03  0.2236068E+02  0.7957747E-01  0.1516063E+00
      -11   -1    0    0    0    0  0.00000000000E+00  0.00000000000E+00  0.50000000000E+03  0.50000000000E+03  0.00000000000E+00 0.  1.
       11   -1    0    0    0    0 -0.00000000000E+00 -0.00000000000E+00 -0.50000000000E+03  0.50000000000E+03  0.00000000000E+00 0. -1.
  1000024    1    1    2    0    0  0.31379805404E+03 -0.34494183596E+03 -0.13796180057E+01  0.50000000000E+03  0.18039957800E+03 0. -1.
 -1000024    1    1    2    0    0 -0.31379805404E+03  0.34494183596E+03  0.13796180057E+01  0.50000000000E+03  0.18039957800E+03 0.  1.
</event>
<event>
 4   0  0.1092222E-03  0.2236068E+02  0.7957747E-01  0.1516063E+00
      -11   -1    0    0    0    0  0.00000000000E+00  0.00000000000E+00  0.50000000000E+03  0.50000000000E+03  0.00000000000E+00 0.  1.
       11   -1    0    0    0    0 -0.00000000000E+00 -0.00000000000E+00 -0.50000000000E+03  0.50000000000E+03  0.00000000000E+00 0. -1.
  1000024    1    1    2    0    0 -0.21837598291E+03 -0.65257891416E+02  0.40682837899E+03  0.50000000000E+03  0.18039957800E+03 0.  1.
 -1000024    1    1    2    0    0  0.21837598291E+03  0.65257891416E+02 -0.40682837899E+03  0.50000000000E+03  0.18039957800E+03 0. -1.
</event>
<event>
 4   0  0.6712789E-04  0.2236068E+02  0.7957747E-01  0.1516063E+00
      -11   -1    0    0    0    0  0.00000000000E+00  0.00000000000E+00  0.50000000000E+03  0.50000000000E+03  0.00000000000E+00 0.  1.
       11   -1    0    0    0    0 -0.00000000000E+00 -0.00000000000E+00 -0.50000000000E+03  0.50000000000E+03  0.00000000000E+00 0. -1.
  1000024    1    1    2    0    0 -0.23470995739E+03  0.34869152001E+03  0.20194418049E+03  0.50000000000E+03  0.18039957800E+03 0.  1.
 -1000024    1    1    2    0    0  0.23470995739E+03 -0.34869152001E+03 -0.20194418049E+03  0.50000000000E+03  0.18039957800E+03 0. -1.
</event>
<event>
 4   0  0.7366543E-04  0.2236068E+02  0.7957747E-01  0.1516063E+00
      -11   -1    0    0    0    0  0.00000000000E+00  0.00000000000E+00  0.50000000000E+03  0.50000000000E+03  0.00000000000E+00 0.  1.
       11   -1    0    0    0    0 -0.00000000000E+00 -0.00000000000E+00 -0.50000000000E+03  0.50000000000E+03  0.00000000000E+00 0. -1.
  1000024    1    1    2    0    0 -0.34135332805E+03  0.71852455362E+02  0.30946909756E+03  0.50000000000E+03  0.18039957800E+03 0. -1.
 -1000024    1    1    2    0    0  0.34135332805E+03 -0.71852455362E+02 -0.30946909756E+03  0.50000000000E+03  0.18039957800E+03 0.  1.
</event>
<event>
 4   0  0.7366543E-04  0.2236068E+02  0.7957747E-01  0.1516063E+00
      -11   -1    0    0    0    0  0.00000000000E+00  0.00000000000E+00  0.50000000000E+03  0.50000000000E+03  0.00000000000E+00 0.  1.
       11   -1    0    0    0    0 -0.00000000000E+00 -0.00000000000E+00 -0.50000000000E+03  0.50000000000E+03  0.00000000000E+00 0. -1.
  1000024    1    1    2    0    0 -0.44251755150E+03  0.41359310822E+02  0.14115104068E+03  0.50000000000E+03  0.18039957800E+03 0. -1.
 -1000024    1    1    2    0    0  0.44251755150E+03 -0.41359310822E+02 -0.14115104068E+03  0.50000000000E+03  0.18039957800E+03 0.  1.
</event>
<event>
 4   0  0.1092222E-03  0.2236068E+02  0.7957747E-01  0.1516063E+00
      -11   -1    0    0    0    0  0.00000000000E+00  0.00000000000E+00  0.50000000000E+03  0.50000000000E+03  0.00000000000E+00 0.  1.
       11   -1    0    0    0    0 -0.00000000000E+00 -0.00000000000E+00 -0.50000000000E+03  0.50000000000E+03  0.00000000000E+00 0. -1.
  1000024    1    1    2    0    0  0.16427660925E+03 -0.26303962567E+03  0.34825183882E+03  0.50000000000E+03  0.18039957800E+03 0. -1.
 -1000024    1    1    2    0    0 -0.16427660925E+03  0.26303962567E+03 -0.34825183882E+03  0.50000000000E+03  0.18039957800E+03 0.  1.
</event>
<event>
 4   0  0.6712789E-04  0.2236068E+02  0.7957747E-01  0.1516063E+00
      -11   -1    0    0    0    0  0.00000000000E+00  0.00000000000E+00  0.50000000000E+03  0.50000000000E+03  0.00000000000E+00 0.  1.
       11   -1    0    0    0    0 -0.00000000000E+00 -0.00000000000E+00 -0.50000000000E+03  0.50000000000E+03  0.00000000000E+00 0. -1.
  1000024    1    1    2    0    0 -0.20824680389E+03  0.69888856966E+02  0.41134512104E+03  0.50000000000E+03  0.18039957800E+03 0. -1.
 -1000024    1    1    2    0    0  0.20824680389E+03 -0.69888856966E+02 -0.41134512104E+03  0.50000000000E+03  0.18039957800E+03 0.  1.
</event>
<event>
 4   0  0.6712789E-04  0.2236068E+02  0.7957747E-01  0.1516063E+00
      -11   -1    0    0    0    0  0.00000000000E+00  0.00000000000E+00  0.50000000000E+03  0.50000000000E+03  0.00000000000E+00 0.  1.
       11   -1    0    0    0    0 -0.00000000000E+00 -0.00000000000E+00 -0.50000000000E+03  0.50000000000E+03  0.00000000000E+00 0. -1.
  1000024    1    1    2    0    0  0.27791749666E+02  0.46394510584E+03  0.37928217348E+02  0.50000000000E+03  0.18039957800E+03 0.  1.
 -1000024    1    1    2    0    0 -0.27791749666E+02 -0.46394510584E+03 -0.37928217348E+02  0.50000000000E+03  0.18039957800E+03 0. -1.
</event>
<event>
 4   0  0.1092222E-03  0.2236068E+02  0.7957747E-01  0.1516063E+00
      -11   -1    0    0    0    0  0.00000000000E+00  0.00000000000E+00  0.50000000000E+03  0.50000000000E+03  0.00000000000E+00 0.  1.
       11   -1    0    0    0    0 -0.00000000000E+00 -0.00000000000E+00 -0.50000000000E+03  0.50000000000E+03  0.00000000000E+00 0. -1.
  1000024    1    1    2    0    0  0.10191587929E+03 -0.16800290617E+03  0.42289971545E+03  0.50000000000E+03  0.18039957800E+03 0.  1.
 -1000024    1    1    2    0    0 -0.10191587929E+03  0.16800290617E+03 -0.42289971545E+03  0.50000000000E+03  0.18039957800E+03 0.  1.
</event>
<event>
 4   0  0.1092222E-03  0.2236068E+02  0.7957747E-01  0.1516063E+00
      -11   -1    0    0    0    0  0.00000000000E+00  0.00000000000E+00  0.50000000000E+03  0.50000000000E+03  0.00000000000E+00 0.  1.
       11   -1    0    0    0    0 -0.00000000000E+00 -0.00000000000E+00 -0.50000000000E+03  0.50000000000E+03  0.00000000000E+00 0. -1.
  1000024    1    1    2    0    0  0.14561308726E+03 -0.23141642256E+03  0.37775555647E+03  0.50000000000E+03  0.18039957800E+03 0.  1.
 -1000024    1    1    2    0    0 -0.14561308726E+03  0.23141642256E+03 -0.37775555647E+03  0.50000000000E+03  0.18039957800E+03 0. -1.
</event>
<event>
 4   0  0.6712789E-04  0.2236068E+02  0.7957747E-01  0.1516063E+00
      -11   -1    0    0    0    0  0.00000000000E+00  0.00000000000E+00  0.50000000000E+03  0.50000000000E+03  0.00000000000E+00 0.  1.
       11   -1    0    0    0    0 -0.00000000000E+00 -0.00000000000E+00 -0.50000000000E+03  0.50000000000E+03  0.00000000000E+00 0. -1.
  1000024    1    1    2    0    0 -0.44441260396E+03  0.55617921202E+02 -0.12984635743E+03  0.50000000000E+03  0.18039957800E+03 0.  1.
 -1000024    1    1    2    0    0  0.44441260396E+03 -0.55617921202E+02  0.12984635743E+03  0.50000000000E+03  0.18039957800E+03 0. -1.
</event>
<event>
 4   0  0.6712789E-04  0.2236068E+02  0.7957747E-01  0.1516063E+00
      -11   -1    0    0    0    0  0.00000000000E+00  0.00000000000E+00  0.50000000000E+03  0.50000000000E+03  0.00000000000E+00 0.  1.
       11   -1    0    0    0    0 -0.00000000000E+00 -0.00000000000E+00 -0.50000000000E+03  0.50000000000E+03  0.00000000000E+00 0. -1.
  1000024    1    1    2    0    0 -0.28841346311E+03  0.29386081624E+02  0.36525350753E+03  0.50000000000E+03  0.18039957800E+03 0. -1.
 -1000024    1    1    2    0    0  0.28841346311E+03 -0.29386081624E+02 -0.36525350753E+03  0.50000000000E+03  0.18039957800E+03 0.  1.
</event>
<event>
 4   0  0.6712789E-04  0.2236068E+02  0.7957747E-01  0.1516063E+00
      -11   -1    0    0    0    0  0.00000000000E+00  0.00000000000E+00  0.50000000000E+03  0.50000000000E+03  0.00000000000E+00 0.  1.
       11   -1    0    0    0    0 -0.00000000000E+00 -0.00000000000E+00 -0.50000000000E+03  0.50000000000E+03  0.00000000000E+00 0. -1.
  1000024    1    1    2    0    0  0.16719986915E+03 -0.84298654324E+02  0.42707602706E+03  0.50000000000E+03  0.18039957800E+03 0.  1.
 -1000024    1    1    2    0    0 -0.16719986915E+03  0.84298654324E+02 -0.42707602706E+03  0.50000000000E+03  0.18039957800E+03 0. -1.
</event>
<event>
 4   0  0.6712789E-04  0.2236068E+02  0.7957747E-01  0.1516063E+00
      -11   -1    0    0    0    0  0.00000000000E+00  0.00000000000E+00  0.50000000000E+03  0.50000000000E+03  0.00000000000E+00 0.  1.
       11   -1    0    0    0    0 -0.00000000000E+00 -0.00000000000E+00 -0.50000000000E+03  0.50000000000E+03  0.00000000000E+00 0. -1.
  1000024    1    1    2    0    0  0.43808570504E+03  0.22355624875E+02  0.15823126534E+03  0.50000000000E+03  0.18039957800E+03 0.  1.
 -1000024    1    1    2    0    0 -0.43808570504E+03 -0.22355624875E+02 -0.15823126534E+03  0.50000000000E+03  0.18039957800E+03 0. -1.
</event>
<event>
 4   0  0.6712789E-04  0.2236068E+02  0.7957747E-01  0.1516063E+00
      -11   -1    0    0    0    0  0.00000000000E+00  0.00000000000E+00  0.50000000000E+03  0.50000000000E+03  0.00000000000E+00 0.  1.
       11   -1    0    0    0    0 -0.00000000000E+00 -0.00000000000E+00 -0.50000000000E+03  0.50000000000E+03  0.00000000000E+00 0. -1.
  1000024    1    1    2    0    0 -0.10029010907E+03  0.19196802902E+03 -0.41297235030E+03  0.50000000000E+03  0.18039957800E+03 0.  1.
 -1000024    1    1    2    0    0  0.10029010907E+03 -0.19196802902E+03  0.41297235030E+03  0.50000000000E+03  0.18039957800E+03 0. -1.
</event>
<event>
 4   0  0.7366543E-04  0.2236068E+02  0.7957747E-01  0.1516063E+00
      -11   -1    0    0    0    0  0.00000000000E+00  0.00000000000E+00  0.50000000000E+03  0.50000000000E+03  0.00000000000E+00 0.  1.
       11   -1    0    0    0    0 -0.00000000000E+00 -0.00000000000E+00 -0.50000000000E+03  0.50000000000E+03  0.00000000000E+00 0. -1.
  1000024    1    1    2    0    0  0.21726750273E+03 -0.34797014483E+03  0.22173768922E+03  0.50000000000E+03  0.18039957800E+03 0.  1.
 -1000024    1    1    2    0    0 -0.21726750273E+03  0.34797014483E+03 -0.22173768922E+03  0.50000000000E+03  0.18039957800E+03 0. -1.
</event>
<event>
 4   0  0.6712789E-04  0.2236068E+02  0.7957747E-01  0.1516063E+00
      -11   -1    0    0    0    0  0.00000000000E+00  0.00000000000E+00  0.50000000000E+03  0.50000000000E+03  0.00000000000E+00 0.  1.
       11   -1    0    0    0    0 -0.00000000000E+00 -0.00000000000E+00 -0.50000000000E+03  0.50000000000E+03  0.00000000000E+00 0. -1.
  1000024    1    1    2    0    0 -0.32299066315E+03 -0.33530118727E+03 -0.26573249618E+02  0.50000000000E+03  0.18039957800E+03 0.  1.
 -1000024    1    1    2    0    0  0.32299066315E+03  0.33530118727E+03  0.26573249618E+02  0.50000000000E+03  0.18039957800E+03 0. -1.
</event>
<event>
 4   0  0.6712789E-04  0.2236068E+02  0.7957747E-01  0.1516063E+00
      -11   -1    0    0    0    0  0.00000000000E+00  0.00000000000E+00  0.50000000000E+03  0.50000000000E+03  0.00000000000E+00 0.  1.
       11   -1    0    0    0    0 -0.00000000000E+00 -0.00000000000E+00 -0.50000000000E+03  0.50000000000E+03  0.00000000000E+00 0. -1.
  1000024    1    1    2    0    0 -0.14738041744E+03 -0.15401777440E+03  0.41474513859E+03  0.50000000000E+03  0.18039957800E+03 0.  1.
 -1000024    1    1    2    0    0  0.14738041744E+03  0.15401777440E+03 -0.41474513859E+03  0.50000000000E+03  0.18039957800E+03 0. -1.
</event>
<event>
 4   0  0.6712789E-04  0.2236068E+02  0.7957747E-01  0.1516063E+00
      -11   -1    0    0    0    0  0.00000000000E+00  0.00000000000E+00  0.50000000000E+03  0.50000000000E+03  0.00000000000E+00 0.  1.
       11   -1    0    0    0    0 -0.00000000000E+00 -0.00000000000E+00 -0.50000000000E+03  0.50000000000E+03  0.00000000000E+00 0. -1.
  1000024    1    1    2    0    0  0.32720597493E+03  0.59007068598E+02  0.32697157076E+03  0.50000000000E+03  0.18039957800E+03 0.  1.
 -1000024    1    1    2    0    0 -0.32720597493E+03 -0.59007068598E+02 -0.32697157076E+03  0.50000000000E+03  0.18039957800E+03 0.  1.
</event>
<event>
 4   0  0.1092222E-03  0.2236068E+02  0.7957747E-01  0.1516063E+00
      -11   -1    0    0    0    0  0.00000000000E+00  0.00000000000E+00  0.50000000000E+03  0.50000000000E+03  0.00000000000E+00 0.  1.
       11   -1    0    0    0    0 -0.00000000000E+00 -0.00000000000E+00 -0.50000000000E+03  0.50000000000E+03  0.00000000000E+00 0. -1.
  1000024    1    1    2    0    0 -0.10561740159E+03 -0.26474726925E+03  0.36906617315E+03  0.50000000000E+03  0.18039957800E+03 0.  1.
 -1000024    1    1    2    0    0  0.10561740159E+03  0.26474726925E+03 -0.36906617315E+03  0.50000000000E+03  0.18039957800E+03 0. -1.
</event>
<event>
 4   0  0.1092222E-03  0.2236068E+02  0.7957747E-01  0.1516063E+00
      -11   -1    0    0    0    0  0.00000000000E+00  0.00000000000E+00  0.50000000000E+03  0.50000000000E+03  0.00000000000E+00 0.  1.
       11   -1    0    0    0    0 -0.00000000000E+00 -0.00000000000E+00 -0.50000000000E+03  0.50000000000E+03  0.00000000000E+00 0. -1.
  1000024    1    1    2    0    0 -0.56639885912E+02  0.34285551086E+03  0.31096304323E+03  0.50000000000E+03  0.18039957800E+03 0.  1.
 -1000024    1    1    2    0    0  0.56639885912E+02 -0.34285551086E+03 -0.31096304323E+03  0.50000000000E+03  0.18039957800E+03 0. -1.
</event>
<event>
 4   0  0.6712789E-04  0.2236068E+02  0.7957747E-01  0.1516063E+00
      -11   -1    0    0    0    0  0.00000000000E+00  0.00000000000E+00  0.50000000000E+03  0.50000000000E+03  0.00000000000E+00 0.  1.
       11   -1    0    0    0    0 -0.00000000000E+00 -0.00000000000E+00 -0.50000000000E+03  0.50000000000E+03  0.00000000000E+00 0. -1.
  1000024    1    1    2    0    0 -0.43478234987E+03  0.16598630212E+03 -0.29476227808E+02  0.50000000000E+03  0.18039957800E+03 0. -1.
 -1000024    1    1    2    0    0  0.43478234987E+03 -0.16598630212E+03  0.29476227808E+02  0.50000000000E+03  0.18039957800E+03 0.  1.
</event>
<event>
 4   0  0.7366543E-04  0.2236068E+02  0.7957747E-01  0.1516063E+00
      -11   -1    0    0    0    0  0.00000000000E+00  0.00000000000E+00  0.50000000000E+03  0.50000000000E+03  0.00000000000E+00 0.  1.
       11   -1    0    0    0    0 -0.00000000000E+00 -0.00000000000E+00 -0.50000000000E+03  0.50000000000E+03  0.00000000000E+00 0. -1.
  1000024    1    1    2    0    0  0.45490526253E+03  0.37228779976E+02 -0.95557377124E+02  0.50000000000E+03  0.18039957800E+03 0. -1.
 -1000024    1    1    2    0    0 -0.45490526253E+03 -0.37228779976E+02  0.95557377124E+02  0.50000000000E+03  0.18039957800E+03 0.  1.
</event>
<event>
 4   0  0.1092222E-03  0.2236068E+02  0.7957747E-01  0.1516063E+00
      -11   -1    0    0    0    0  0.00000000000E+00  0.00000000000E+00  0.50000000000E+03  0.50000000000E+03  0.00000000000E+00 0.  1.
       11   -1    0    0    0    0 -0.00000000000E+00 -0.00000000000E+00 -0.50000000000E+03  0.50000000000E+03  0.00000000000E+00 0. -1.
  1000024    1    1    2    0    0  0.30240287346E+03  0.23628307308E+03 -0.26491282294E+03  0.50000000000E+03  0.18039957800E+03 0. -1.
 -1000024    1    1    2    0    0 -0.30240287346E+03 -0.23628307308E+03  0.26491282294E+03  0.50000000000E+03  0.18039957800E+03 0.  1.
</event>
<event>
 4   0  0.7366543E-04  0.2236068E+02  0.7957747E-01  0.1516063E+00
      -11   -1    0    0    0    0  0.00000000000E+00  0.00000000000E+00  0.50000000000E+03  0.50000000000E+03  0.00000000000E+00 0.  1.
       11   -1    0    0    0    0 -0.00000000000E+00 -0.00000000000E+00 -0.50000000000E+03  0.50000000000E+03  0.00000000000E+00 0. -1.
  1000024    1    1    2    0    0  0.35559550734E+03 -0.83663388348E+02 -0.28984179282E+03  0.50000000000E+03  0.18039957800E+03 0.  1.
 -1000024    1    1    2    0    0 -0.35559550734E+03  0.83663388348E+02  0.28984179282E+03  0.50000000000E+03  0.18039957800E+03 0. -1.
</event>
<event>
 4   0  0.1092222E-03  0.2236068E+02  0.7957747E-01  0.1516063E+00
      -11   -1    0    0    0    0  0.00000000000E+00  0.00000000000E+00  0.50000000000E+03  0.50000000000E+03  0.00000000000E+00 0.  1.
       11   -1    0    0    0    0 -0.00000000000E+00 -0.00000000000E+00 -0.50000000000E+03  0.50000000000E+03  0.00000000000E+00 0. -1.
  1000024    1    1    2    0    0 -0.36545634014E+03 -0.24729789402E+03  0.15080254415E+03  0.50000000000E+03  0.18039957800E+03 0.  1.
 -1000024    1    1    2    0    0  0.36545634014E+03  0.24729789402E+03 -0.15080254415E+03  0.50000000000E+03  0.18039957800E+03 0. -1.
</event>
<event>
 4   0  0.6712789E-04  0.2236068E+02  0.7957747E-01  0.1516063E+00
      -11   -1    0    0    0    0  0.00000000000E+00  0.00000000000E+00  0.50000000000E+03  0.50000000000E+03  0.00000000000E+00 0.  1.
       11   -1    0    0    0    0 -0.00000000000E+00 -0.00000000000E+00 -0.50000000000E+03  0.50000000000E+03  0.00000000000E+00 0. -1.
  1000024    1    1    2    0    0 -0.27677267715E+03  0.32956531809E+03  0.17955383191E+03  0.50000000000E+03  0.18039957800E+03 0. -1.
 -1000024    1    1    2    0    0  0.27677267715E+03 -0.32956531809E+03 -0.17955383191E+03  0.50000000000E+03  0.18039957800E+03 0.  1.
</event>
<event>
 4   0  0.6712789E-04  0.2236068E+02  0.7957747E-01  0.1516063E+00
      -11   -1    0    0    0    0  0.00000000000E+00  0.00000000000E+00  0.50000000000E+03  0.50000000000E+03  0.00000000000E+00 0.  1.
       11   -1    0    0    0    0 -0.00000000000E+00 -0.00000000000E+00 -0.50000000000E+03  0.50000000000E+03  0.00000000000E+00 0. -1.
  1000024    1    1    2    0    0 -0.11312624161E+02 -0.20922799832E+03  0.41659532104E+03  0.50000000000E+03  0.18039957800E+03 0. -1.
 -1000024    1    1    2    0    0  0.11312624161E+02  0.20922799832E+03 -0.41659532104E+03  0.50000000000E+03  0.18039957800E+03 0. -1.
</event>
<event>
 4   0  0.7366543E-04  0.2236068E+02  0.7957747E-01  0.1516063E+00
      -11   -1    0    0    0    0  0.00000000000E+00  0.00000000000E+00  0.50000000000E+03  0.50000000000E+03  0.00000000000E+00 0.  1.
       11   -1    0    0    0    0 -0.00000000000E+00 -0.00000000000E+00 -0.50000000000E+03  0.50000000000E+03  0.00000000000E+00 0. -1.
  1000024    1    1    2    0    0 -0.80230826430E+02  0.39686045888E+03  0.23134559197E+03  0.50000000000E+03  0.18039957800E+03 0. -1.
 -1000024    1    1    2    0    0  0.80230826430E+02 -0.39686045888E+03 -0.23134559197E+03  0.50000000000E+03  0.18039957800E+03 0.  1.
</event>
<event>
 4   0  0.1092222E-03  0.2236068E+02  0.7957747E-01  0.1516063E+00
      -11   -1    0    0    0    0  0.00000000000E+00  0.00000000000E+00  0.50000000000E+03  0.50000000000E+03  0.00000000000E+00 0.  1.
       11   -1    0    0    0    0 -0.00000000000E+00 -0.00000000000E+00 -0.50000000000E+03  0.50000000000E+03  0.00000000000E+00 0. -1.
  1000024    1    1    2    0    0  0.20055747233E+03  0.42098794540E+03  0.13573434765E+01  0.50000000000E+03  0.18039957800E+03 0.  1.
 -1000024    1    1    2    0    0 -0.20055747233E+03 -0.42098794540E+03 -0.13573434765E+01  0.50000000000E+03  0.18039957800E+03 0. -1.
</event>
<event>
 4   0  0.6712789E-04  0.2236068E+02  0.7957747E-01  0.1516063E+00
      -11   -1    0    0    0    0  0.00000000000E+00  0.00000000000E+00  0.50000000000E+03  0.50000000000E+03  0.00000000000E+00 0.  1.
       11   -1    0    0    0    0 -0.00000000000E+00 -0.00000000000E+00 -0.50000000000E+03  0.50000000000E+03  0.00000000000E+00 0. -1.
  1000024    1    1    2    0    0 -0.23115424370E+03  0.19485342295E+03  0.35504345008E+03  0.50000000000E+03  0.18039957800E+03 0.  1.
 -1000024    1    1    2    0    0  0.23115424370E+03 -0.19485342295E+03 -0.35504345008E+03  0.50000000000E+03  0.18039957800E+03 0. -1.
</event>
<event>
 4   0  0.7366543E-04  0.2236068E+02  0.7957747E-01  0.1516063E+00
      -11   -1    0    0    0    0  0.00000000000E+00  0.00000000000E+00  0.50000000000E+03  0.50000000000E+03  0.00000000000E+00 0.  1.
       11   -1    0    0    0    0 -0.00000000000E+00 -0.00000000000E+00 -0.50000000000E+03  0.50000000000E+03  0.00000000000E+00 0. -1.
  1000024    1    1    2    0    0 -0.45347251774E+03  0.65103967287E+02 -0.87064007247E+02  0.50000000000E+03  0.18039957800E+03 0. -1.
 -1000024    1    1    2    0    0  0.45347251774E+03 -0.65103967287E+02  0.87064007247E+02  0.50000000000E+03  0.18039957800E+03 0.  1.
</event>
<event>
 4   0  0.7366543E-04  0.2236068E+02  0.7957747E-01  0.1516063E+00
      -11   -1    0    0    0    0  0.00000000000E+00  0.00000000000E+00  0.50000000000E+03  0.50000000000E+03  0.00000000000E+00 0.  1.
       11   -1    0    0    0    0 -0.00000000000E+00 -0.00000000000E+00 -0.50000000000E+03  0.50000000000E+03  0.00000000000E+00 0. -1.
  1000024    1    1    2    0    0 -0.34230003439E+03  0.80880676803E+02  0.30617804434E+03  0.50000000000E+03  0.18039957800E+03 0. -1.
 -1000024    1    1    2    0    0  0.34230003439E+03 -0.80880676803E+02 -0.30617804434E+03  0.50000000000E+03  0.18039957800E+03 0.  1.
</event>
<event>
 4   0  0.1092222E-03  0.2236068E+02  0.7957747E-01  0.1516063E+00
      -11   -1    0    0    0    0  0.00000000000E+00  0.00000000000E+00  0.50000000000E+03  0.50000000000E+03  0.00000000000E+00 0.  1.
       11   -1    0    0    0    0 -0.00000000000E+00 -0.00000000000E+00 -0.50000000000E+03  0.50000000000E+03  0.00000000000E+00 0. -1.
  1000024    1    1    2    0    0 -0.31733092447E+02  0.43594405923E+03  0.16248624657E+03  0.50000000000E+03  0.18039957800E+03 0. -1.
 -1000024    1    1    2    0    0  0.31733092447E+02 -0.43594405923E+03 -0.16248624657E+03  0.50000000000E+03  0.18039957800E+03 0. -1.
</event>
<event>
 4   0  0.1092222E-03  0.2236068E+02  0.7957747E-01  0.1516063E+00
      -11   -1    0    0    0    0  0.00000000000E+00  0.00000000000E+00  0.50000000000E+03  0.50000000000E+03  0.00000000000E+00 0.  1.
       11   -1    0    0    0    0 -0.00000000000E+00 -0.00000000000E+00 -0.50000000000E+03  0.50000000000E+03  0.00000000000E+00 0. -1.
  1000024    1    1    2    0    0  0.17997518237E+03  0.41272604131E+03 -0.12133482934E+03  0.50000000000E+03  0.18039957800E+03 0.  1.
 -1000024    1    1    2    0    0 -0.17997518237E+03 -0.41272604131E+03  0.12133482934E+03  0.50000000000E+03  0.18039957800E+03 0. -1.
</event>
<event>
 4   0  0.1092222E-03  0.2236068E+02  0.7957747E-01  0.1516063E+00
      -11   -1    0    0    0    0  0.00000000000E+00  0.00000000000E+00  0.50000000000E+03  0.50000000000E+03  0.00000000000E+00 0.  1.
       11   -1    0    0    0    0 -0.00000000000E+00 -0.00000000000E+00 -0.50000000000E+03  0.50000000000E+03  0.00000000000E+00 0. -1.
  1000024    1    1    2    0    0 -0.23158298599E+03  0.40302178366E+03  0.37399929833E+02  0.50000000000E+03  0.18039957800E+03 0. -1.
 -1000024    1    1    2    0    0  0.23158298599E+03 -0.40302178366E+03 -0.37399929833E+02  0.50000000000E+03  0.18039957800E+03 0.  1.
</event>
<event>
 4   0  0.7366543E-04  0.2236068E+02  0.7957747E-01  0.1516063E+00
      -11   -1    0    0    0    0  0.00000000000E+00  0.00000000000E+00  0.50000000000E+03  0.50000000000E+03  0.00000000000E+00 0.  1.
       11   -1    0    0    0    0 -0.00000000000E+00 -0.00000000000E+00 -0.50000000000E+03  0.50000000000E+03  0.00000000000E+00 0. -1.
  1000024    1    1    2    0    0 -0.45982233543E+03  0.74590525840E+01  0.77225479138E+02  0.50000000000E+03  0.18039957800E+03 0.  1.
 -1000024    1    1    2    0    0  0.45982233543E+03 -0.74590525840E+01 -0.77225479138E+02  0.50000000000E+03  0.18039957800E+03 0. -1.
</event>
<event>
 4   0  0.1092222E-03  0.2236068E+02  0.7957747E-01  0.1516063E+00
      -11   -1    0    0    0    0  0.00000000000E+00  0.00000000000E+00  0.50000000000E+03  0.50000000000E+03  0.00000000000E+00 0.  1.
       11   -1    0    0    0    0 -0.00000000000E+00 -0.00000000000E+00 -0.50000000000E+03  0.50000000000E+03  0.00000000000E+00 0. -1.
  1000024    1    1    2    0    0  0.37684058842E+03  0.19998917880E+03  0.18828566471E+03  0.50000000000E+03  0.18039957800E+03 0. -1.
 -1000024    1    1    2    0    0 -0.37684058842E+03 -0.19998917880E+03 -0.18828566471E+03  0.50000000000E+03  0.18039957800E+03 0.  1.
</event>
<event>
 4   0  0.1092222E-03  0.2236068E+02  0.7957747E-01  0.1516063E+00
      -11   -1    0    0    0    0  0.00000000000E+00  0.00000000000E+00  0.50000000000E+03  0.50000000000E+03  0.00000000000E+00 0.  1.
       11   -1    0    0    0    0 -0.00000000000E+00 -0.00000000000E+00 -0.50000000000E+03  0.50000000000E+03  0.00000000000E+00 0. -1.
  1000024    1    1    2    0    0  0.30357912072E+03 -0.17299951344E+03  0.30881528147E+03  0.50000000000E+03  0.18039957800E+03 0.  1.
 -1000024    1    1    2    0    0 -0.30357912072E+03  0.17299951344E+03 -0.30881528147E+03  0.50000000000E+03  0.18039957800E+03 0. -1.
</event>
<event>
 4   0  0.6712789E-04  0.2236068E+02  0.7957747E-01  0.1516063E+00
      -11   -1    0    0    0    0  0.00000000000E+00  0.00000000000E+00  0.50000000000E+03  0.50000000000E+03  0.00000000000E+00 0.  1.
       11   -1    0    0    0    0 -0.00000000000E+00 -0.00000000000E+00 -0.50000000000E+03  0.50000000000E+03  0.00000000000E+00 0. -1.
  1000024    1    1    2    0    0 -0.28564799709E+02  0.45401824156E+03 -0.10250600375E+03  0.50000000000E+03  0.18039957800E+03 0.  1.
 -1000024    1    1    2    0    0  0.28564799709E+02 -0.45401824156E+03  0.10250600375E+03  0.50000000000E+03  0.18039957800E+03 0. -1.
</event>
<event>
 4   0  0.7366543E-04  0.2236068E+02  0.7957747E-01  0.1516063E+00
      -11   -1    0    0    0    0  0.00000000000E+00  0.00000000000E+00  0.50000000000E+03  0.50000000000E+03  0.00000000000E+00 0.  1.
       11   -1    0    0    0    0 -0.00000000000E+00 -0.00000000000E+00 -0.50000000000E+03  0.50000000000E+03  0.00000000000E+00 0. -1.
  1000024    1    1    2    0    0 -0.17703286795E+03  0.43109553691E+03 -0.16492240008E+02  0.50000000000E+03  0.18039957800E+03 0. -1.
 -1000024    1    1    2    0    0  0.17703286795E+03 -0.43109553691E+03  0.16492240008E+02  0.50000000000E+03  0.18039957800E+03 0.  1.
</event>
<event>
 4   0  0.6712789E-04  0.2236068E+02  0.7957747E-01  0.1516063E+00
      -11   -1    0    0    0    0  0.00000000000E+00  0.00000000000E+00  0.50000000000E+03  0.50000000000E+03  0.00000000000E+00 0.  1.
       11   -1    0    0    0    0 -0.00000000000E+00 -0.00000000000E+00 -0.50000000000E+03  0.50000000000E+03  0.00000000000E+00 0. -1.
  1000024    1    1    2    0    0  0.47837578812E+02 -0.22633362767E+03  0.40489584746E+03  0.50000000000E+03  0.18039957800E+03 0.  1.
 -1000024    1    1    2    0    0 -0.47837578812E+02  0.22633362767E+03 -0.40489584746E+03  0.50000000000E+03  0.18039957800E+03 0. -1.
</event>
<event>
 4   0  0.1092222E-03  0.2236068E+02  0.7957747E-01  0.1516063E+00
      -11   -1    0    0    0    0  0.00000000000E+00  0.00000000000E+00  0.50000000000E+03  0.50000000000E+03  0.00000000000E+00 0.  1.
       11   -1    0    0    0    0 -0.00000000000E+00 -0.00000000000E+00 -0.50000000000E+03  0.50000000000E+03  0.00000000000E+00 0. -1.
  1000024    1    1    2    0    0 -0.34520871786E+03  0.31308256221E+03  0.16316942339E+02  0.50000000000E+03  0.18039957800E+03 0.  1.
 -1000024    1    1    2    0    0  0.34520871786E+03 -0.31308256221E+03 -0.16316942339E+02  0.50000000000E+03  0.18039957800E+03 0. -1.
</event>
<event>
 4   0  0.6712789E-04  0.2236068E+02  0.7957747E-01  0.1516063E+00
      -11   -1    0    0    0    0  0.00000000000E+00  0.00000000000E+00  0.50000000000E+03  0.50000000000E+03  0.00000000000E+00 0.  1.
       11   -1    0    0    0    0 -0.00000000000E+00 -0.00000000000E+00 -0.50000000000E+03  0.50000000000E+03  0.00000000000E+00 0. -1.
  1000024    1    1    2    0    0 -0.34392684341E+03 -0.18826240159E+03  0.25244323478E+03  0.50000000000E+03  0.18039957800E+03 0.  1.
 -1000024    1    1    2    0    0  0.34392684341E+03  0.18826240159E+03 -0.25244323478E+03  0.50000000000E+03  0.18039957800E+03 0. -1.
</event>
<event>
 4   0  0.1092222E-03  0.2236068E+02  0.7957747E-01  0.1516063E+00
      -11   -1    0    0    0    0  0.00000000000E+00  0.00000000000E+00  0.50000000000E+03  0.50000000000E+03  0.00000000000E+00 0.  1.
       11   -1    0    0    0    0 -0.00000000000E+00 -0.00000000000E+00 -0.50000000000E+03  0.50000000000E+03  0.00000000000E+00 0. -1.
  1000024    1    1    2    0    0  0.30611480099E+02 -0.19782632719E+03  0.42116941225E+03  0.50000000000E+03  0.18039957800E+03 0. -1.
 -1000024    1    1    2    0    0 -0.30611480099E+02  0.19782632719E+03 -0.42116941225E+03  0.50000000000E+03  0.18039957800E+03 0.  1.
</event>
<event>
 4   0  0.1092222E-03  0.2236068E+02  0.7957747E-01  0.1516063E+00
      -11   -1    0    0    0    0  0.00000000000E+00  0.00000000000E+00  0.50000000000E+03  0.50000000000E+03  0.00000000000E+00 0.  1.
       11   -1    0    0    0    0 -0.00000000000E+00 -0.00000000000E+00 -0.50000000000E+03  0.50000000000E+03  0.00000000000E+00 0. -1.
  1000024    1    1    2    0    0  0.27822490390E+03 -0.42005270859E+02  0.37186348614E+03  0.50000000000E+03  0.18039957800E+03 0.  1.
 -1000024    1    1    2    0    0 -0.27822490390E+03  0.42005270859E+02 -0.37186348614E+03  0.50000000000E+03  0.18039957800E+03 0. -1.
</event>
<event>
 4   0  0.7366543E-04  0.2236068E+02  0.7957747E-01  0.1516063E+00
      -11   -1    0    0    0    0  0.00000000000E+00  0.00000000000E+00  0.50000000000E+03  0.50000000000E+03  0.00000000000E+00 0.  1.
       11   -1    0    0    0    0 -0.00000000000E+00 -0.00000000000E+00 -0.50000000000E+03  0.50000000000E+03  0.00000000000E+00 0. -1.
  1000024    1    1    2    0    0 -0.30813013842E+03  0.22852711690E+03  0.26511727008E+03  0.50000000000E+03  0.18039957800E+03 0. -1.
 -1000024    1    1    2    0    0  0.30813013842E+03 -0.22852711690E+03 -0.26511727008E+03  0.50000000000E+03  0.18039957800E+03 0.  1.
</event>
<event>
 4   0  0.1092222E-03  0.2236068E+02  0.7957747E-01  0.1516063E+00
      -11   -1    0    0    0    0  0.00000000000E+00  0.00000000000E+00  0.50000000000E+03  0.50000000000E+03  0.00000000000E+00 0.  1.
       11   -1    0    0    0    0 -0.00000000000E+00 -0.00000000000E+00 -0.50000000000E+03  0.50000000000E+03  0.00000000000E+00 0. -1.
  1000024    1    1    2    0    0  0.34014670319E+03  0.20927297535E+03  0.24075097997E+03  0.50000000000E+03  0.18039957800E+03 0.  1.
 -1000024    1    1    2    0    0 -0.34014670319E+03 -0.20927297535E+03 -0.24075097997E+03  0.50000000000E+03  0.18039957800E+03 0. -1.
</event>
<event>
 4   0  0.7366543E-04  0.2236068E+02  0.7957747E-01  0.1516063E+00
      -11   -1    0    0    0    0  0.00000000000E+00  0.00000000000E+00  0.50000000000E+03  0.50000000000E+03  0.00000000000E+00 0.  1.
       11   -1    0    0    0    0 -0.00000000000E+00 -0.00000000000E+00 -0.50000000000E+03  0.50000000000E+03  0.00000000000E+00 0. -1.
  1000024    1    1    2    0    0  0.77246030245E+02 -0.45969741876E+03  0.12935465034E+02  0.50000000000E+03  0.18039957800E+03 0. -1.
 -1000024    1    1    2    0    0 -0.77246030245E+02  0.45969741876E+03 -0.12935465034E+02  0.50000000000E+03  0.18039957800E+03 0.  1.
</event>
<event>
 4   0  0.6712789E-04  0.2236068E+02  0.7957747E-01  0.1516063E+00
      -11   -1    0    0    0    0  0.00000000000E+00  0.00000000000E+00  0.50000000000E+03  0.50000000000E+03  0.00000000000E+00 0.  1.
       11   -1    0    0    0    0 -0.00000000000E+00 -0.00000000000E+00 -0.50000000000E+03  0.50000000000E+03  0.00000000000E+00 0. -1.
  1000024    1    1    2    0    0  0.67018044963E+02  0.13709042644E+03  0.44064814635E+03  0.50000000000E+03  0.18039957800E+03 0.  1.
 -1000024    1    1    2    0    0 -0.67018044963E+02 -0.13709042644E+03 -0.44064814635E+03  0.50000000000E+03  0.18039957800E+03 0.  1.
</event>
<event>
 4   0  0.1092222E-03  0.2236068E+02  0.7957747E-01  0.1516063E+00
      -11   -1    0    0    0    0  0.00000000000E+00  0.00000000000E+00  0.50000000000E+03  0.50000000000E+03  0.00000000000E+00 0.  1.
       11   -1    0    0    0    0 -0.00000000000E+00 -0.00000000000E+00 -0.50000000000E+03  0.50000000000E+03  0.00000000000E+00 0. -1.
  1000024    1    1    2    0    0  0.36940406647E+03 -0.28378528052E+03  0.21506801076E+02  0.50000000000E+03  0.18039957800E+03 0. -1.
 -1000024    1    1    2    0    0 -0.36940406647E+03  0.28378528052E+03 -0.21506801076E+02  0.50000000000E+03  0.18039957800E+03 0.  1.
</event>
<event>
 4   0  0.7366543E-04  0.2236068E+02  0.7957747E-01  0.1516063E+00
      -11   -1    0    0    0    0  0.00000000000E+00  0.00000000000E+00  0.50000000000E+03  0.50000000000E+03  0.00000000000E+00 0.  1.
       11   -1    0    0    0    0 -0.00000000000E+00 -0.00000000000E+00 -0.50000000000E+03  0.50000000000E+03  0.00000000000E+00 0. -1.
  1000024    1    1    2    0    0 -0.40612202226E+03  0.14736402795E+03 -0.17551278746E+03  0.50000000000E+03  0.18039957800E+03 0. -1.
 -1000024    1    1    2    0    0  0.40612202226E+03 -0.14736402795E+03  0.17551278746E+03  0.50000000000E+03  0.18039957800E+03 0.  1.
</event>
<event>
 4   0  0.7366543E-04  0.2236068E+02  0.7957747E-01  0.1516063E+00
      -11   -1    0    0    0    0  0.00000000000E+00  0.00000000000E+00  0.50000000000E+03  0.50000000000E+03  0.00000000000E+00 0.  1.
       11   -1    0    0    0    0 -0.00000000000E+00 -0.00000000000E+00 -0.50000000000E+03  0.50000000000E+03  0.00000000000E+00 0. -1.
  1000024    1    1    2    0    0 -0.17217189589E+03 -0.37485115010E+02  0.43174957635E+03  0.50000000000E+03  0.18039957800E+03 0. -1.
 -1000024    1    1    2    0    0  0.17217189589E+03  0.37485115010E+02 -0.43174957635E+03  0.50000000000E+03  0.18039957800E+03 0. -1.
</event>
<event>
 4   0  0.1092222E-03  0.2236068E+02  0.7957747E-01  0.1516063E+00
      -11   -1    0    0    0    0  0.00000000000E+00  0.00000000000E+00  0.50000000000E+03  0.50000000000E+03  0.00000000000E+00 0.  1.
       11   -1    0    0    0    0 -0.00000000000E+00 -0.00000000000E+00 -0.50000000000E+03  0.50000000000E+03  0.00000000000E+00 0. -1.
  1000024    1    1    2    0    0  0.28659757421E+03 -0.45390183651E+02  0.36504459172E+03  0.50000000000E+03  0.18039957800E+03 0. -1.
 -1000024    1    1    2    0    0 -0.28659757421E+03  0.45390183651E+02 -0.36504459172E+03  0.50000000000E+03  0.18039957800E+03 0.  1.
</event>
<event>
 4   0  0.6712789E-04  0.2236068E+02  0.7957747E-01  0.1516063E+00
      -11   -1    0    0    0    0  0.00000000000E+00  0.00000000000E+00  0.50000000000E+03  0.50000000000E+03  0.00000000000E+00 0.  1.
       11   -1    0    0    0    0 -0.00000000000E+00 -0.00000000000E+00 -0.50000000000E+03  0.50000000000E+03  0.00000000000E+00 0. -1.
  1000024    1    1    2    0    0  0.19449275831E+03  0.23062915112E+02  0.42319813465E+03  0.50000000000E+03  0.18039957800E+03 0. -1.
 -1000024    1    1    2    0    0 -0.19449275831E+03 -0.23062915112E+02 -0.42319813465E+03  0.50000000000E+03  0.18039957800E+03 0.  1.
</event>
<event>
 4   0  0.6712789E-04  0.2236068E+02  0.7957747E-01  0.1516063E+00
      -11   -1    0    0    0    0  0.00000000000E+00  0.00000000000E+00  0.50000000000E+03  0.50000000000E+03  0.00000000000E+00 0.  1.
       11   -1    0    0    0    0 -0.00000000000E+00 -0.00000000000E+00 -0.50000000000E+03  0.50000000000E+03  0.00000000000E+00 0. -1.
  1000024    1    1    2    0    0  0.15177975705E+03  0.41211295345E+03  0.15678587694E+03  0.50000000000E+03  0.18039957800E+03 0. -1.
 -1000024    1    1    2    0    0 -0.15177975705E+03 -0.41211295345E+03 -0.15678587694E+03  0.50000000000E+03  0.18039957800E+03 0.  1.
</event>
<event>
 4   0  0.1092222E-03  0.2236068E+02  0.7957747E-01  0.1516063E+00
      -11   -1    0    0    0    0  0.00000000000E+00  0.00000000000E+00  0.50000000000E+03  0.50000000000E+03  0.00000000000E+00 0.  1.
       11   -1    0    0    0    0 -0.00000000000E+00 -0.00000000000E+00 -0.50000000000E+03  0.50000000000E+03  0.00000000000E+00 0. -1.
  1000024    1    1    2    0    0  0.97059101634E+02 -0.16951515724E+03  0.42343846603E+03  0.50000000000E+03  0.18039957800E+03 0. -1.
 -1000024    1    1    2    0    0 -0.97059101634E+02  0.16951515724E+03 -0.42343846603E+03  0.50000000000E+03  0.18039957800E+03 0. -1.
</event>
<event>
 4   0  0.1092222E-03  0.2236068E+02  0.7957747E-01  0.1516063E+00
      -11   -1    0    0    0    0  0.00000000000E+00  0.00000000000E+00  0.50000000000E+03  0.50000000000E+03  0.00000000000E+00 0.  1.
       11   -1    0    0    0    0 -0.00000000000E+00 -0.00000000000E+00 -0.50000000000E+03  0.50000000000E+03  0.00000000000E+00 0. -1.
  1000024    1    1    2    0    0 -0.40426148232E+03 -0.93595257751E+01  0.23225211613E+03  0.50000000000E+03  0.18039957800E+03 0.  1.
 -1000024    1    1    2    0    0  0.40426148232E+03  0.93595257751E+01 -0.23225211613E+03  0.50000000000E+03  0.18039957800E+03 0. -1.
</event>
<event>
 4   0  0.6712789E-04  0.2236068E+02  0.7957747E-01  0.1516063E+00
      -11   -1    0    0    0    0  0.00000000000E+00  0.00000000000E+00  0.50000000000E+03  0.50000000000E+03  0.00000000000E+00 0.  1.
       11   -1    0    0    0    0 -0.00000000000E+00 -0.00000000000E+00 -0.50000000000E+03  0.50000000000E+03  0.00000000000E+00 0. -1.
  1000024    1    1    2    0    0  0.32922186586E+03 -0.47479492334E+02  0.32682511088E+03  0.50000000000E+03  0.18039957800E+03 0. -1.
 -1000024    1    1    2    0    0 -0.32922186586E+03  0.47479492334E+02 -0.32682511088E+03  0.50000000000E+03  0.18039957800E+03 0.  1.
</event>
<event>
 4   0  0.6712789E-04  0.2236068E+02  0.7957747E-01  0.1516063E+00
      -11   -1    0    0    0    0  0.00000000000E+00  0.00000000000E+00  0.50000000000E+03  0.50000000000E+03  0.00000000000E+00 0.  1.
       11   -1    0    0    0    0 -0.00000000000E+00 -0.00000000000E+00 -0.50000000000E+03  0.50000000000E+03  0.00000000000E+00 0. -1.
  1000024    1    1    2    0    0 -0.33513127914E+03  0.32318472950E+03 -0.26356187409E+02  0.50000000000E+03  0.18039957800E+03 0.  1.
 -1000024    1    1    2    0    0  0.33513127914E+03 -0.32318472950E+03  0.26356187409E+02  0.50000000000E+03  0.18039957800E+03 0. -1.
</event>
<event>
 4   0  0.7366543E-04  0.2236068E+02  0.7957747E-01  0.1516063E+00
      -11   -1    0    0    0    0  0.00000000000E+00  0.00000000000E+00  0.50000000000E+03  0.50000000000E+03  0.00000000000E+00 0.  1.
       11   -1    0    0    0    0 -0.00000000000E+00 -0.00000000000E+00 -0.50000000000E+03  0.50000000000E+03  0.00000000000E+00 0. -1.
  1000024    1    1    2    0    0 -0.12730357905E+03  0.13372293663E+03  0.42821486107E+03  0.50000000000E+03  0.18039957800E+03 0.  1.
 -1000024    1    1    2    0    0  0.12730357905E+03 -0.13372293663E+03 -0.42821486107E+03  0.50000000000E+03  0.18039957800E+03 0. -1.
</event>
<event>
 4   0  0.1092222E-03  0.2236068E+02  0.7957747E-01  0.1516063E+00
      -11   -1    0    0    0    0  0.00000000000E+00  0.00000000000E+00  0.50000000000E+03  0.50000000000E+03  0.00000000000E+00 0.  1.
       11   -1    0    0    0    0 -0.00000000000E+00 -0.00000000000E+00 -0.50000000000E+03  0.50000000000E+03  0.00000000000E+00 0. -1.
  1000024    1    1    2    0    0  0.78077264433E+01 -0.39825096939E+03  0.24246896099E+03  0.50000000000E+03  0.18039957800E+03 0.  1.
 -1000024    1    1    2    0    0 -0.78077264433E+01  0.39825096939E+03 -0.24246896099E+03  0.50000000000E+03  0.18039957800E+03 0. -1.
</event>
<event>
 4   0  0.1092222E-03  0.2236068E+02  0.7957747E-01  0.1516063E+00
      -11   -1    0    0    0    0  0.00000000000E+00  0.00000000000E+00  0.50000000000E+03  0.50000000000E+03  0.00000000000E+00 0.  1.
       11   -1    0    0    0    0 -0.00000000000E+00 -0.00000000000E+00 -0.50000000000E+03  0.50000000000E+03  0.00000000000E+00 0. -1.
  1000024    1    1    2    0    0 -0.29523219444E+03 -0.17032252902E+03  0.31825175527E+03  0.50000000000E+03  0.18039957800E+03 0.  1.
 -1000024    1    1    2    0    0  0.29523219444E+03  0.17032252902E+03 -0.31825175527E+03  0.50000000000E+03  0.18039957800E+03 0. -1.
</event>
<event>
 4   0  0.6712789E-04  0.2236068E+02  0.7957747E-01  0.1516063E+00
      -11   -1    0    0    0    0  0.00000000000E+00  0.00000000000E+00  0.50000000000E+03  0.50000000000E+03  0.00000000000E+00 0.  1.
       11   -1    0    0    0    0 -0.00000000000E+00 -0.00000000000E+00 -0.50000000000E+03  0.50000000000E+03  0.00000000000E+00 0. -1.
  1000024    1    1    2    0    0  0.35367961236E+03 -0.15681539674E+03  0.26033757970E+03  0.50000000000E+03  0.18039957800E+03 0. -1.
 -1000024    1    1    2    0    0 -0.35367961236E+03  0.15681539674E+03 -0.26033757970E+03  0.50000000000E+03  0.18039957800E+03 0.  1.
</event>
<event>
 4   0  0.1092222E-03  0.2236068E+02  0.7957747E-01  0.1516063E+00
      -11   -1    0    0    0    0  0.00000000000E+00  0.00000000000E+00  0.50000000000E+03  0.50000000000E+03  0.00000000000E+00 0.  1.
       11   -1    0    0    0    0 -0.00000000000E+00 -0.00000000000E+00 -0.50000000000E+03  0.50000000000E+03  0.00000000000E+00 0. -1.
  1000024    1    1    2    0    0  0.24146445808E+03  0.29961914912E+03  0.26339945562E+03  0.50000000000E+03  0.18039957800E+03 0.  1.
 -1000024    1    1    2    0    0 -0.24146445808E+03 -0.29961914912E+03 -0.26339945562E+03  0.50000000000E+03  0.18039957800E+03 0. -1.
</event>
<event>
 4   0  0.1092222E-03  0.2236068E+02  0.7957747E-01  0.1516063E+00
      -11   -1    0    0    0    0  0.00000000000E+00  0.00000000000E+00  0.50000000000E+03  0.50000000000E+03  0.00000000000E+00 0.  1.
       11   -1    0    0    0    0 -0.00000000000E+00 -0.00000000000E+00 -0.50000000000E+03  0.50000000000E+03  0.00000000000E+00 0. -1.
  1000024    1    1    2    0    0 -0.16605340444E+03 -0.25548910609E+03  0.35299798272E+03  0.50000000000E+03  0.18039957800E+03 0.  1.
 -1000024    1    1    2    0    0  0.16605340444E+03  0.25548910609E+03 -0.35299798272E+03  0.50000000000E+03  0.18039957800E+03 0. -1.
</event>
<event>
 4   0  0.6712789E-04  0.2236068E+02  0.7957747E-01  0.1516063E+00
      -11   -1    0    0    0    0  0.00000000000E+00  0.00000000000E+00  0.50000000000E+03  0.50000000000E+03  0.00000000000E+00 0.  1.
       11   -1    0    0    0    0 -0.00000000000E+00 -0.00000000000E+00 -0.50000000000E+03  0.50000000000E+03  0.00000000000E+00 0. -1.
  1000024    1    1    2    0    0  0.43938823696E+03  0.14620553623E+03  0.54935513586E+02  0.50000000000E+03  0.18039957800E+03 0.  1.
 -1000024    1    1    2    0    0 -0.43938823696E+03 -0.14620553623E+03 -0.54935513586E+02  0.50000000000E+03  0.18039957800E+03 0. -1.
</event>
<event>
 4   0  0.7366543E-04  0.2236068E+02  0.7957747E-01  0.1516063E+00
      -11   -1    0    0    0    0  0.00000000000E+00  0.00000000000E+00  0.50000000000E+03  0.50000000000E+03  0.00000000000E+00 0.  1.
       11   -1    0    0    0    0 -0.00000000000E+00 -0.00000000000E+00 -0.50000000000E+03  0.50000000000E+03  0.00000000000E+00 0. -1.
  1000024    1    1    2    0    0 -0.90183845121E+01 -0.35058176805E+03  0.30735498191E+03  0.50000000000E+03  0.18039957800E+03 0. -1.
 -1000024    1    1    2    0    0  0.90183845121E+01  0.35058176805E+03 -0.30735498191E+03  0.50000000000E+03  0.18039957800E+03 0.  1.
</event>
<event>
 4   0  0.1092222E-03  0.2236068E+02  0.7957747E-01  0.1516063E+00
      -11   -1    0    0    0    0  0.00000000000E+00  0.00000000000E+00  0.50000000000E+03  0.50000000000E+03  0.00000000000E+00 0.  1.
       11   -1    0    0    0    0 -0.00000000000E+00 -0.00000000000E+00 -0.50000000000E+03  0.50000000000E+03  0.00000000000E+00 0. -1.
  1000024    1    1    2    0    0 -0.41101452998E+03  0.19168410125E+03  0.10853687728E+03  0.50000000000E+03  0.18039957800E+03 0. -1.
 -1000024    1    1    2    0    0  0.41101452998E+03 -0.19168410125E+03 -0.10853687728E+03  0.50000000000E+03  0.18039957800E+03 0.  1.
</event>
<event>
 4   0  0.1092222E-03  0.2236068E+02  0.7957747E-01  0.1516063E+00
      -11   -1    0    0    0    0  0.00000000000E+00  0.00000000000E+00  0.50000000000E+03  0.50000000000E+03  0.00000000000E+00 0.  1.
       11   -1    0    0    0    0 -0.00000000000E+00 -0.00000000000E+00 -0.50000000000E+03  0.50000000000E+03  0.00000000000E+00 0. -1.
  1000024    1    1    2    0    0 -0.30497731399E+03 -0.34026693118E+03  0.93076558582E+02  0.50000000000E+03  0.18039957800E+03 0.  1.
 -1000024    1    1    2    0    0  0.30497731399E+03  0.34026693118E+03 -0.93076558582E+02  0.50000000000E+03  0.18039957800E+03 0. -1.
</event>
<event>
 4   0  0.7366543E-04  0.2236068E+02  0.7957747E-01  0.1516063E+00
      -11   -1    0    0    0    0  0.00000000000E+00  0.00000000000E+00  0.50000000000E+03  0.50000000000E+03  0.00000000000E+00 0.  1.
       11   -1    0    0    0    0 -0.00000000000E+00 -0.00000000000E+00 -0.50000000000E+03  0.50000000000E+03  0.00000000000E+00 0. -1.
  1000024    1    1    2    0    0 -0.26756023212E+03  0.27956485772E+02  0.38090149560E+03  0.50000000000E+03  0.18039957800E+03 0.  1.
 -1000024    1    1    2    0    0  0.26756023212E+03 -0.27956485772E+02 -0.38090149560E+03  0.50000000000E+03  0.18039957800E+03 0. -1.
</event>
<event>
 4   0  0.6712789E-04  0.2236068E+02  0.7957747E-01  0.1516063E+00
      -11   -1    0    0    0    0  0.00000000000E+00  0.00000000000E+00  0.50000000000E+03  0.50000000000E+03  0.00000000000E+00 0.  1.
       11   -1    0    0    0    0 -0.00000000000E+00 -0.00000000000E+00 -0.50000000000E+03  0.50000000000E+03  0.00000000000E+00 0. -1.
  1000024    1    1    2    0    0 -0.41634209091E+03  0.65031737922E+02  0.19971511874E+03  0.50000000000E+03  0.18039957800E+03 0. -1.
 -1000024    1    1    2    0    0  0.41634209091E+03 -0.65031737922E+02 -0.19971511874E+03  0.50000000000E+03  0.18039957800E+03 0.  1.
</event>
<event>
 4   0  0.7366543E-04  0.2236068E+02  0.7957747E-01  0.1516063E+00
      -11   -1    0    0    0    0  0.00000000000E+00  0.00000000000E+00  0.50000000000E+03  0.50000000000E+03  0.00000000000E+00 0.  1.
       11   -1    0    0    0    0 -0.00000000000E+00 -0.00000000000E+00 -0.50000000000E+03  0.50000000000E+03  0.00000000000E+00 0. -1.
  1000024    1    1    2    0    0 -0.36151288674E+03  0.27187936925E+03  0.11334034387E+03  0.50000000000E+03  0.18039957800E+03 0. -1.
 -1000024    1    1    2    0    0  0.36151288674E+03 -0.27187936925E+03 -0.11334034387E+03  0.50000000000E+03  0.18039957800E+03 0.  1.
</event>
<event>
 4   0  0.6712789E-04  0.2236068E+02  0.7957747E-01  0.1516063E+00
      -11   -1    0    0    0    0  0.00000000000E+00  0.00000000000E+00  0.50000000000E+03  0.50000000000E+03  0.00000000000E+00 0.  1.
       11   -1    0    0    0    0 -0.00000000000E+00 -0.00000000000E+00 -0.50000000000E+03  0.50000000000E+03  0.00000000000E+00 0. -1.
  1000024    1    1    2    0    0  0.13130236611E+03 -0.42575838075E+03  0.13764258837E+03  0.50000000000E+03  0.18039957800E+03 0.  1.
 -1000024    1    1    2    0    0 -0.13130236611E+03  0.42575838075E+03 -0.13764258837E+03  0.50000000000E+03  0.18039957800E+03 0.  1.
</event>
<event>
 4   0  0.6712789E-04  0.2236068E+02  0.7957747E-01  0.1516063E+00
      -11   -1    0    0    0    0  0.00000000000E+00  0.00000000000E+00  0.50000000000E+03  0.50000000000E+03  0.00000000000E+00 0.  1.
       11   -1    0    0    0    0 -0.00000000000E+00 -0.00000000000E+00 -0.50000000000E+03  0.50000000000E+03  0.00000000000E+00 0. -1.
  1000024    1    1    2    0    0 -0.36236606137E+03 -0.22181995989E+03  0.19220493026E+03  0.50000000000E+03  0.18039957800E+03 0. -1.
 -1000024    1    1    2    0    0  0.36236606137E+03  0.22181995989E+03 -0.19220493026E+03  0.50000000000E+03  0.18039957800E+03 0.  1.
</event>
<event>
 4   0  0.6712789E-04  0.2236068E+02  0.7957747E-01  0.1516063E+00
      -11   -1    0    0    0    0  0.00000000000E+00  0.00000000000E+00  0.50000000000E+03  0.50000000000E+03  0.00000000000E+00 0.  1.
       11   -1    0    0    0    0 -0.00000000000E+00 -0.00000000000E+00 -0.50000000000E+03  0.50000000000E+03  0.00000000000E+00 0. -1.
  1000024    1    1    2    0    0 -0.41460736104E+03 -0.20060662092E+03  0.72895212960E+02  0.50000000000E+03  0.18039957800E+03 0. -1.
 -1000024    1    1    2    0    0  0.41460736104E+03  0.20060662092E+03 -0.72895212960E+02  0.50000000000E+03  0.18039957800E+03 0.  1.
</event>
<event>
 4   0  0.1092222E-03  0.2236068E+02  0.7957747E-01  0.1516063E+00
      -11   -1    0    0    0    0  0.00000000000E+00  0.00000000000E+00  0.50000000000E+03  0.50000000000E+03  0.00000000000E+00 0.  1.
       11   -1    0    0    0    0 -0.00000000000E+00 -0.00000000000E+00 -0.50000000000E+03  0.50000000000E+03  0.00000000000E+00 0. -1.
  1000024    1    1    2    0    0 -0.38862945973E+03 -0.65637216096E+02  0.24922859216E+03  0.50000000000E+03  0.18039957800E+03 0. -1.
 -1000024    1    1    2    0    0  0.38862945973E+03  0.65637216096E+02 -0.24922859216E+03  0.50000000000E+03  0.18039957800E+03 0.  1.
</event>
<event>
 4   0  0.1092222E-03  0.2236068E+02  0.7957747E-01  0.1516063E+00
      -11   -1    0    0    0    0  0.00000000000E+00  0.00000000000E+00  0.50000000000E+03  0.50000000000E+03  0.00000000000E+00 0.  1.
       11   -1    0    0    0    0 -0.00000000000E+00 -0.00000000000E+00 -0.50000000000E+03  0.50000000000E+03  0.00000000000E+00 0. -1.
  1000024    1    1    2    0    0 -0.18891072935E+03  0.41900156735E+03  0.78780804442E+02  0.50000000000E+03  0.18039957800E+03 0. -1.
 -1000024    1    1    2    0    0  0.18891072935E+03 -0.41900156735E+03 -0.78780804442E+02  0.50000000000E+03  0.18039957800E+03 0.  1.
</event>
<event>
 4   0  0.7366543E-04  0.2236068E+02  0.7957747E-01  0.1516063E+00
      -11   -1    0    0    0    0  0.00000000000E+00  0.00000000000E+00  0.50000000000E+03  0.50000000000E+03  0.00000000000E+00 0.  1.
       11   -1    0    0    0    0 -0.00000000000E+00 -0.00000000000E+00 -0.50000000000E+03  0.50000000000E+03  0.00000000000E+00 0. -1.
  1000024    1    1    2    0    0 -0.59184126163E+02  0.28294635744E+03  0.36591609732E+03  0.50000000000E+03  0.18039957800E+03 0.  1.
 -1000024    1    1    2    0    0  0.59184126163E+02 -0.28294635744E+03 -0.36591609732E+03  0.50000000000E+03  0.18039957800E+03 0. -1.
</event>
<event>
 4   0  0.1092222E-03  0.2236068E+02  0.7957747E-01  0.1516063E+00
      -11   -1    0    0    0    0  0.00000000000E+00  0.00000000000E+00  0.50000000000E+03  0.50000000000E+03  0.00000000000E+00 0.  1.
       11   -1    0    0    0    0 -0.00000000000E+00 -0.00000000000E+00 -0.50000000000E+03  0.50000000000E+03  0.00000000000E+00 0. -1.
  1000024    1    1    2    0    0 -0.29269561846E+03 -0.67608271461E+02  0.35667126156E+03  0.50000000000E+03  0.18039957800E+03 0.  1.
 -1000024    1    1    2    0    0  0.29269561846E+03  0.67608271461E+02 -0.35667126156E+03  0.50000000000E+03  0.18039957800E+03 0.  1.
</event>
<event>
 4   0  0.1092222E-03  0.2236068E+02  0.7957747E-01  0.1516063E+00
      -11   -1    0    0    0    0  0.00000000000E+00  0.00000000000E+00  0.50000000000E+03  0.50000000000E+03  0.00000000000E+00 0.  1.
       11   -1    0    0    0    0 -0.00000000000E+00 -0.00000000000E+00 -0.50000000000E+03  0.50000000000E+03  0.00000000000E+00 0. -1.
  1000024    1    1    2    0    0 -0.42219375264E+03 -0.10554982911E+03  0.16753405941E+03  0.50000000000E+03  0.18039957800E+03 0.  1.
 -1000024    1    1    2    0    0  0.42219375264E+03  0.10554982911E+03 -0.16753405941E+03  0.50000000000E+03  0.18039957800E+03 0. -1.
</event>
<event>
 4   0  0.1092222E-03  0.2236068E+02  0.7957747E-01  0.1516063E+00
      -11   -1    0    0    0    0  0.00000000000E+00  0.00000000000E+00  0.50000000000E+03  0.50000000000E+03  0.00000000000E+00 0.  1.
       11   -1    0    0    0    0 -0.00000000000E+00 -0.00000000000E+00 -0.50000000000E+03  0.50000000000E+03  0.00000000000E+00 0. -1.
  1000024    1    1    2    0    0 -0.29554876983E+03  0.16991529787E+03  0.31817559375E+03  0.50000000000E+03  0.18039957800E+03 0. -1.
 -1000024    1    1    2    0    0  0.29554876983E+03 -0.16991529787E+03 -0.31817559375E+03  0.50000000000E+03  0.18039957800E+03 0.  1.
</event>
<event>
 4   0  0.6712789E-04  0.2236068E+02  0.7957747E-01  0.1516063E+00
      -11   -1    0    0    0    0  0.00000000000E+00  0.00000000000E+00  0.50000000000E+03  0.50000000000E+03  0.00000000000E+00 0.  1.
       11   -1    0    0    0    0 -0.00000000000E+00 -0.00000000000E+00 -0.50000000000E+03  0.50000000000E+03  0.00000000000E+00 0. -1.
  1000024    1    1    2    0    0 -0.44281949242E+03 -0.13906193460E+03  0.45040734236E+02  0.50000000000E+03  0.18039957800E+03 0.  1.
 -1000024    1    1    2    0    0  0.44281949242E+03  0.13906193460E+03 -0.45040734236E+02  0.50000000000E+03  0.18039957800E+03 0. -1.
</event>
<event>
 4   0  0.7366543E-04  0.2236068E+02  0.7957747E-01  0.1516063E+00
      -11   -1    0    0    0    0  0.00000000000E+00  0.00000000000E+00  0.50000000000E+03  0.50000000000E+03  0.00000000000E+00 0.  1.
       11   -1    0    0    0    0 -0.00000000000E+00 -0.00000000000E+00 -0.50000000000E+03  0.50000000000E+03  0.00000000000E+00 0. -1.
  1000024    1    1    2    0    0  0.36909879040E+03 -0.28498593969E+03 -0.22559615820E+01  0.50000000000E+03  0.18039957800E+03 0. -1.
 -1000024    1    1    2    0    0 -0.36909879040E+03  0.28498593969E+03  0.22559615820E+01  0.50000000000E+03  0.18039957800E+03 0.  1.
</event>
<event>
 4   0  0.1092222E-03  0.2236068E+02  0.7957747E-01  0.1516063E+00
      -11   -1    0    0    0    0  0.00000000000E+00  0.00000000000E+00  0.50000000000E+03  0.50000000000E+03  0.00000000000E+00 0.  1.
       11   -1    0    0    0    0 -0.00000000000E+00 -0.00000000000E+00 -0.50000000000E+03  0.50000000000E+03  0.00000000000E+00 0. -1.
  1000024    1    1    2    0    0 -0.85280142342E+02  0.40220941269E+03 -0.22002472117E+03  0.50000000000E+03  0.18039957800E+03 0.  1.
 -1000024    1    1    2    0    0  0.85280142342E+02 -0.40220941269E+03  0.22002472117E+03  0.50000000000E+03  0.18039957800E+03 0.  1.
</event>
<event>
 4   0  0.6712789E-04  0.2236068E+02  0.7957747E-01  0.1516063E+00
      -11   -1    0    0    0    0  0.00000000000E+00  0.00000000000E+00  0.50000000000E+03  0.50000000000E+03  0.00000000000E+00 0.  1.
       11   -1    0    0    0    0 -0.00000000000E+00 -0.00000000000E+00 -0.50000000000E+03  0.50000000000E+03  0.00000000000E+00 0. -1.
  1000024    1    1    2    0    0 -0.29842244221E+03 -0.25546336762E+03  0.25127376712E+03  0.50000000000E+03  0.18039957800E+03 0. -1.
 -1000024    1    1    2    0    0  0.29842244221E+03  0.25546336762E+03 -0.25127376712E+03  0.50000000000E+03  0.18039957800E+03 0.  1.
</event>
<event>
 4   0  0.6712789E-04  0.2236068E+02  0.7957747E-01  0.1516063E+00
      -11   -1    0    0    0    0  0.00000000000E+00  0.00000000000E+00  0.50000000000E+03  0.50000000000E+03  0.00000000000E+00 0.  1.
       11   -1    0    0    0    0 -0.00000000000E+00 -0.00000000000E+00 -0.50000000000E+03  0.50000000000E+03  0.00000000000E+00 0. -1.
  1000024    1    1    2    0    0 -0.61467816209E+01 -0.32867607094E+03  0.33074196850E+03  0.50000000000E+03  0.18039957800E+03 0. -1.
 -1000024    1    1    2    0    0  0.61467816209E+01  0.32867607094E+03 -0.33074196850E+03  0.50000000000E+03  0.18039957800E+03 0.  1.
</event>
<event>
 4   0  0.1092222E-03  0.2236068E+02  0.7957747E-01  0.1516063E+00
      -11   -1    0    0    0    0  0.00000000000E+00  0.00000000000E+00  0.50000000000E+03  0.50000000000E+03  0.00000000000E+00 0.  1.
       11   -1    0    0    0    0 -0.00000000000E+00 -0.00000000000E+00 -0.50000000000E+03  0.50000000000E+03  0.00000000000E+00 0. -1.
  1000024    1    1    2    0    0 -0.18451371859E+03 -0.26853752389E+03  0.33361396580E+03  0.50000000000E+03  0.18039957800E+03 0. -1.
 -1000024    1    1    2    0    0  0.18451371859E+03  0.26853752389E+03 -0.33361396580E+03  0.50000000000E+03  0.18039957800E+03 0.  1.
</event>
<event>
 4   0  0.1092222E-03  0.2236068E+02  0.7957747E-01  0.1516063E+00
      -11   -1    0    0    0    0  0.00000000000E+00  0.00000000000E+00  0.50000000000E+03  0.50000000000E+03  0.00000000000E+00 0.  1.
       11   -1    0    0    0    0 -0.00000000000E+00 -0.00000000000E+00 -0.50000000000E+03  0.50000000000E+03  0.00000000000E+00 0. -1.
  1000024    1    1    2    0    0 -0.60171059994E+02 -0.41917516356E+03  0.19526294592E+03  0.50000000000E+03  0.18039957800E+03 0.  1.
 -1000024    1    1    2    0    0  0.60171059994E+02  0.41917516356E+03 -0.19526294592E+03  0.50000000000E+03  0.18039957800E+03 0. -1.
</event>
<event>
 4   0  0.1092222E-03  0.2236068E+02  0.7957747E-01  0.1516063E+00
      -11   -1    0    0    0    0  0.00000000000E+00  0.00000000000E+00  0.50000000000E+03  0.50000000000E+03  0.00000000000E+00 0.  1.
       11   -1    0    0    0    0 -0.00000000000E+00 -0.00000000000E+00 -0.50000000000E+03  0.50000000000E+03  0.00000000000E+00 0. -1.
  1000024    1    1    2    0    0 -0.24979466266E+03  0.23988921317E+03  0.31226876912E+03  0.50000000000E+03  0.18039957800E+03 0. -1.
 -1000024    1    1    2    0    0  0.24979466266E+03 -0.23988921317E+03 -0.31226876912E+03  0.50000000000E+03  0.18039957800E+03 0.  1.
</event>
<event>
 4   0  0.6712789E-04  0.2236068E+02  0.7957747E-01  0.1516063E+00
      -11   -1    0    0    0    0  0.00000000000E+00  0.00000000000E+00  0.50000000000E+03  0.50000000000E+03  0.00000000000E+00 0.  1.
       11   -1    0    0    0    0 -0.00000000000E+00 -0.00000000000E+00 -0.50000000000E+03  0.50000000000E+03  0.00000000000E+00 0. -1.
  1000024    1    1    2    0    0 -0.23596732129E+03  0.40060543478E+03 -0.35926329662E+02  0.50000000000E+03  0.18039957800E+03 0. -1.
 -1000024    1    1    2    0    0  0.23596732129E+03 -0.40060543478E+03  0.35926329662E+02  0.50000000000E+03  0.18039957800E+03 0.  1.
</event>
<event>
 4   0  0.7366543E-04  0.2236068E+02  0.7957747E-01  0.1516063E+00
      -11   -1    0    0    0    0  0.00000000000E+00  0.00000000000E+00  0.50000000000E+03  0.50000000000E+03  0.00000000000E+00 0.  1.
       11   -1    0    0    0    0 -0.00000000000E+00 -0.00000000000E+00 -0.50000000000E+03  0.50000000000E+03  0.00000000000E+00 0. -1.
  1000024    1    1    2    0    0 -0.29860284947E+03 -0.35286692536E+03 -0.61459446242E+02  0.50000000000E+03  0.18039957800E+03 0. -1.
 -1000024    1    1    2    0    0  0.29860284947E+03  0.35286692536E+03  0.61459446242E+02  0.50000000000E+03  0.18039957800E+03 0.  1.
</event>
<event>
 4   0  0.1092222E-03  0.2236068E+02  0.7957747E-01  0.1516063E+00
      -11   -1    0    0    0    0  0.00000000000E+00  0.00000000000E+00  0.50000000000E+03  0.50000000000E+03  0.00000000000E+00 0.  1.
       11   -1    0    0    0    0 -0.00000000000E+00 -0.00000000000E+00 -0.50000000000E+03  0.50000000000E+03  0.00000000000E+00 0. -1.
  1000024    1    1    2    0    0 -0.41432638854E+03 -0.95229287827E+02  0.19162729127E+03  0.50000000000E+03  0.18039957800E+03 0. -1.
 -1000024    1    1    2    0    0  0.41432638854E+03  0.95229287827E+02 -0.19162729127E+03  0.50000000000E+03  0.18039957800E+03 0.  1.
</event>
<event>
 4   0  0.7366543E-04  0.2236068E+02  0.7957747E-01  0.1516063E+00
      -11   -1    0    0    0    0  0.00000000000E+00  0.00000000000E+00  0.50000000000E+03  0.50000000000E+03  0.00000000000E+00 0.  1.
       11   -1    0    0    0    0 -0.00000000000E+00 -0.00000000000E+00 -0.50000000000E+03  0.50000000000E+03  0.00000000000E+00 0. -1.
  1000024    1    1    2    0    0  0.30545832012E+03  0.23433248774E+03  0.26313398129E+03  0.50000000000E+03  0.18039957800E+03 0. -1.
 -1000024    1    1    2    0    0 -0.30545832012E+03 -0.23433248774E+03 -0.26313398129E+03  0.50000000000E+03  0.18039957800E+03 0.  1.
</event>
<event>
 4   0  0.1092222E-03  0.2236068E+02  0.7957747E-01  0.1516063E+00
      -11   -1    0    0    0    0  0.00000000000E+00  0.00000000000E+00  0.50000000000E+03  0.50000000000E+03  0.00000000000E+00 0.  1.
       11   -1    0    0    0    0 -0.00000000000E+00 -0.00000000000E+00 -0.50000000000E+03  0.50000000000E+03  0.00000000000E+00 0. -1.
  1000024    1    1    2    0    0 -0.23362669522E+03  0.14405845557E+03  0.37699034592E+03  0.50000000000E+03  0.18039957800E+03 0.  1.
 -1000024    1    1    2    0    0  0.23362669522E+03 -0.14405845557E+03 -0.37699034592E+03  0.50000000000E+03  0.18039957800E+03 0. -1.
</event>
<event>
 4   0  0.1092222E-03  0.2236068E+02  0.7957747E-01  0.1516063E+00
      -11   -1    0    0    0    0  0.00000000000E+00  0.00000000000E+00  0.50000000000E+03  0.50000000000E+03  0.00000000000E+00 0.  1.
       11   -1    0    0    0    0 -0.00000000000E+00 -0.00000000000E+00 -0.50000000000E+03  0.50000000000E+03  0.00000000000E+00 0. -1.
  1000024    1    1    2    0    0 -0.40521442951E+03 -0.20478403935E+03  0.10639903949E+03  0.50000000000E+03  0.18039957800E+03 0. -1.
 -1000024    1    1    2    0    0  0.40521442951E+03  0.20478403935E+03 -0.10639903949E+03  0.50000000000E+03  0.18039957800E+03 0.  1.
</event>
<event>
 4   0  0.7366543E-04  0.2236068E+02  0.7957747E-01  0.1516063E+00
      -11   -1    0    0    0    0  0.00000000000E+00  0.00000000000E+00  0.50000000000E+03  0.50000000000E+03  0.00000000000E+00 0.  1.
       11   -1    0    0    0    0 -0.00000000000E+00 -0.00000000000E+00 -0.50000000000E+03  0.50000000000E+03  0.00000000000E+00 0. -1.
  1000024    1    1    2    0    0 -0.15959066572E+02 -0.17559605688E+03  0.43170282054E+03  0.50000000000E+03  0.18039957800E+03 0. -1.
 -1000024    1    1    2    0    0  0.15959066572E+02  0.17559605688E+03 -0.43170282054E+03  0.50000000000E+03  0.18039957800E+03 0.  1.
</event>
<event>
 4   0  0.6712789E-04  0.2236068E+02  0.7957747E-01  0.1516063E+00
      -11   -1    0    0    0    0  0.00000000000E+00  0.00000000000E+00  0.50000000000E+03  0.50000000000E+03  0.00000000000E+00 0.  1.
       11   -1    0    0    0    0 -0.00000000000E+00 -0.00000000000E+00 -0.50000000000E+03  0.50000000000E+03  0.00000000000E+00 0. -1.
  1000024    1    1    2    0    0 -0.19744497210E+03  0.79939572246E+02  0.41482663854E+03  0.50000000000E+03  0.18039957800E+03 0.  1.
 -1000024    1    1    2    0    0  0.19744497210E+03 -0.79939572246E+02 -0.41482663854E+03  0.50000000000E+03  0.18039957800E+03 0. -1.
</event>
<event>
 4   0  0.1092222E-03  0.2236068E+02  0.7957747E-01  0.1516063E+00
      -11   -1    0    0    0    0  0.00000000000E+00  0.00000000000E+00  0.50000000000E+03  0.50000000000E+03  0.00000000000E+00 0.  1.
       11   -1    0    0    0    0 -0.00000000000E+00 -0.00000000000E+00 -0.50000000000E+03  0.50000000000E+03  0.00000000000E+00 0. -1.
  1000024    1    1    2    0    0  0.23132863065E+03  0.85679077326E+02  0.39572989855E+03  0.50000000000E+03  0.18039957800E+03 0. -1.
 -1000024    1    1    2    0    0 -0.23132863065E+03 -0.85679077326E+02 -0.39572989855E+03  0.50000000000E+03  0.18039957800E+03 0. -1.
</event>
<event>
 4   0  0.7366543E-04  0.2236068E+02  0.7957747E-01  0.1516063E+00
      -11   -1    0    0    0    0  0.00000000000E+00  0.00000000000E+00  0.50000000000E+03  0.50000000000E+03  0.00000000000E+00 0.  1.
       11   -1    0    0    0    0 -0.00000000000E+00 -0.00000000000E+00 -0.50000000000E+03  0.50000000000E+03  0.00000000000E+00 0. -1.
  1000024    1    1    2    0    0  0.90533427762E+02  0.26437190900E+03  0.37331914557E+03  0.50000000000E+03  0.18039957800E+03 0. -1.
 -1000024    1    1    2    0    0 -0.90533427762E+02 -0.26437190900E+03 -0.37331914557E+03  0.50000000000E+03  0.18039957800E+03 0.  1.
</event>
<event>
 4   0  0.1092222E-03  0.2236068E+02  0.7957747E-01  0.1516063E+00
      -11   -1    0    0    0    0  0.00000000000E+00  0.00000000000E+00  0.50000000000E+03  0.50000000000E+03  0.00000000000E+00 0.  1.
       11   -1    0    0    0    0 -0.00000000000E+00 -0.00000000000E+00 -0.50000000000E+03  0.50000000000E+03  0.00000000000E+00 0. -1.
  1000024    1    1    2    0    0  0.22374458242E+03  0.38142593105E+03  0.14801558437E+03  0.50000000000E+03  0.18039957800E+03 0. -1.
 -1000024    1    1    2    0    0 -0.22374458242E+03 -0.38142593105E+03 -0.14801558437E+03  0.50000000000E+03  0.18039957800E+03 0.  1.
</event>
<event>
 4   0  0.6712789E-04  0.2236068E+02  0.7957747E-01  0.1516063E+00
      -11   -1    0    0    0    0  0.00000000000E+00  0.00000000000E+00  0.50000000000E+03  0.50000000000E+03  0.00000000000E+00 0.  1.
       11   -1    0    0    0    0 -0.00000000000E+00 -0.00000000000E+00 -0.50000000000E+03  0.50000000000E+03  0.00000000000E+00 0. -1.
  1000024    1    1    2    0    0 -0.18037479475E+03  0.35163182618E+03  0.24753986446E+03  0.50000000000E+03  0.18039957800E+03 0.  1.
 -1000024    1    1    2    0    0  0.18037479475E+03 -0.35163182618E+03 -0.24753986446E+03  0.50000000000E+03  0.18039957800E+03 0. -1.
</event>
<event>
 4   0  0.1092222E-03  0.2236068E+02  0.7957747E-01  0.1516063E+00
      -11   -1    0    0    0    0  0.00000000000E+00  0.00000000000E+00  0.50000000000E+03  0.50000000000E+03  0.00000000000E+00 0.  1.
       11   -1    0    0    0    0 -0.00000000000E+00 -0.00000000000E+00 -0.50000000000E+03  0.50000000000E+03  0.00000000000E+00 0. -1.
  1000024    1    1    2    0    0  0.40160804761E+03 -0.22746235022E+03  0.66542073809E+02  0.50000000000E+03  0.18039957800E+03 0. -1.
 -1000024    1    1    2    0    0 -0.40160804761E+03  0.22746235022E+03 -0.66542073809E+02  0.50000000000E+03  0.18039957800E+03 0.  1.
</event>
<event>
 4   0  0.6712789E-04  0.2236068E+02  0.7957747E-01  0.1516063E+00
      -11   -1    0    0    0    0  0.00000000000E+00  0.00000000000E+00  0.50000000000E+03  0.50000000000E+03  0.00000000000E+00 0.  1.
       11   -1    0    0    0    0 -0.00000000000E+00 -0.00000000000E+00 -0.50000000000E+03  0.50000000000E+03  0.00000000000E+00 0. -1.
  1000024    1    1    2    0    0 -0.15221839164E+03 -0.14550318446E+03  0.41607015853E+03  0.50000000000E+03  0.18039957800E+03 0.  1.
 -1000024    1    1    2    0    0  0.15221839164E+03  0.14550318446E+03 -0.41607015853E+03  0.50000000000E+03  0.18039957800E+03 0.  1.
</event>
<event>
 4   0  0.1092222E-03  0.2236068E+02  0.7957747E-01  0.1516063E+00
      -11   -1    0    0    0    0  0.00000000000E+00  0.00000000000E+00  0.50000000000E+03  0.50000000000E+03  0.00000000000E+00 0.  1.
       11   -1    0    0    0    0 -0.00000000000E+00 -0.00000000000E+00 -0.50000000000E+03  0.50000000000E+03  0.00000000000E+00 0. -1.
  1000024    1    1    2    0    0 -0.28057561664E+03  0.33407050372E+03  0.16471251973E+03  0.50000000000E+03  0.18039957800E+03 0. -1.
 -1000024    1    1    2    0    0  0.28057561664E+03 -0.33407050372E+03 -0.16471251973E+03  0.50000000000E+03  0.18039957800E+03 0.  1.
</event>
<event>
 4   0  0.6712789E-04  0.2236068E+02  0.7957747E-01  0.1516063E+00
      -11   -1    0    0    0    0  0.00000000000E+00  0.00000000000E+00  0.50000000000E+03  0.50000000000E+03  0.00000000000E+00 0.  1.
       11   -1    0    0    0    0 -0.00000000000E+00 -0.00000000000E+00 -0.50000000000E+03  0.50000000000E+03  0.00000000000E+00 0. -1.
  1000024    1    1    2    0    0  0.24744487147E+03  0.36024058951E+03  0.16264607436E+03  0.50000000000E+03  0.18039957800E+03 0. -1.
 -1000024    1    1    2    0    0 -0.24744487147E+03 -0.36024058951E+03 -0.16264607436E+03  0.50000000000E+03  0.18039957800E+03 0.  1.
</event>
<event>
 4   0  0.6712789E-04  0.2236068E+02  0.7957747E-01  0.1516063E+00
      -11   -1    0    0    0    0  0.00000000000E+00  0.00000000000E+00  0.50000000000E+03  0.50000000000E+03  0.00000000000E+00 0.  1.
       11   -1    0    0    0    0 -0.00000000000E+00 -0.00000000000E+00 -0.50000000000E+03  0.50000000000E+03  0.00000000000E+00 0. -1.
  1000024    1    1    2    0    0 -0.24242535936E+03  0.20828594908E+03  0.33956280835E+03  0.50000000000E+03  0.18039957800E+03 0.  1.
 -1000024    1    1    2    0    0  0.24242535936E+03 -0.20828594908E+03 -0.33956280835E+03  0.50000000000E+03  0.18039957800E+03 0. -1.
</event>
<event>
 4   0  0.6712789E-04  0.2236068E+02  0.7957747E-01  0.1516063E+00
      -11   -1    0    0    0    0  0.00000000000E+00  0.00000000000E+00  0.50000000000E+03  0.50000000000E+03  0.00000000000E+00 0.  1.
       11   -1    0    0    0    0 -0.00000000000E+00 -0.00000000000E+00 -0.50000000000E+03  0.50000000000E+03  0.00000000000E+00 0. -1.
  1000024    1    1    2    0    0 -0.31969137645E+03 -0.20097212998E+03  0.27361216905E+03  0.50000000000E+03  0.18039957800E+03 0. -1.
 -1000024    1    1    2    0    0  0.31969137645E+03  0.20097212998E+03 -0.27361216905E+03  0.50000000000E+03  0.18039957800E+03 0.  1.
</event>
<event>
 4   0  0.6712789E-04  0.2236068E+02  0.7957747E-01  0.1516063E+00
      -11   -1    0    0    0    0  0.00000000000E+00  0.00000000000E+00  0.50000000000E+03  0.50000000000E+03  0.00000000000E+00 0.  1.
       11   -1    0    0    0    0 -0.00000000000E+00 -0.00000000000E+00 -0.50000000000E+03  0.50000000000E+03  0.00000000000E+00 0. -1.
  1000024    1    1    2    0    0 -0.13354248103E+03 -0.14539797768E+03  0.42247109499E+03  0.50000000000E+03  0.18039957800E+03 0.  1.
 -1000024    1    1    2    0    0  0.13354248103E+03  0.14539797768E+03 -0.42247109499E+03  0.50000000000E+03  0.18039957800E+03 0. -1.
</event>
<event>
 4   0  0.6712789E-04  0.2236068E+02  0.7957747E-01  0.1516063E+00
      -11   -1    0    0    0    0  0.00000000000E+00  0.00000000000E+00  0.50000000000E+03  0.50000000000E+03  0.00000000000E+00 0.  1.
       11   -1    0    0    0    0 -0.00000000000E+00 -0.00000000000E+00 -0.50000000000E+03  0.50000000000E+03  0.00000000000E+00 0. -1.
  1000024    1    1    2    0    0 -0.15100233082E+03 -0.26605491169E+03  0.35195038331E+03  0.50000000000E+03  0.18039957800E+03 0. -1.
 -1000024    1    1    2    0    0  0.15100233082E+03  0.26605491169E+03 -0.35195038331E+03  0.50000000000E+03  0.18039957800E+03 0.  1.
</event>
<event>
 4   0  0.1092222E-03  0.2236068E+02  0.7957747E-01  0.1516063E+00
      -11   -1    0    0    0    0  0.00000000000E+00  0.00000000000E+00  0.50000000000E+03  0.50000000000E+03  0.00000000000E+00 0.  1.
       11   -1    0    0    0    0 -0.00000000000E+00 -0.00000000000E+00 -0.50000000000E+03  0.50000000000E+03  0.00000000000E+00 0. -1.
  1000024    1    1    2    0    0 -0.21057799261E+03 -0.37975268914E+03 -0.17000234227E+03  0.50000000000E+03  0.18039957800E+03 0.  1.
 -1000024    1    1    2    0    0  0.21057799261E+03  0.37975268914E+03  0.17000234227E+03  0.50000000000E+03  0.18039957800E+03 0. -1.
</event>
<event>
 4   0  0.7366543E-04  0.2236068E+02  0.7957747E-01  0.1516063E+00
      -11   -1    0    0    0    0  0.00000000000E+00  0.00000000000E+00  0.50000000000E+03  0.50000000000E+03  0.00000000000E+00 0.  1.
       11   -1    0    0    0    0 -0.00000000000E+00 -0.00000000000E+00 -0.50000000000E+03  0.50000000000E+03  0.00000000000E+00 0. -1.
  1000024    1    1    2    0    0 -0.18909792793E+03 -0.42193733292E+03  0.60554545633E+02  0.50000000000E+03  0.18039957800E+03 0.  1.
 -1000024    1    1    2    0    0  0.18909792793E+03  0.42193733292E+03 -0.60554545633E+02  0.50000000000E+03  0.18039957800E+03 0. -1.
</event>
<event>
 4   0  0.1092222E-03  0.2236068E+02  0.7957747E-01  0.1516063E+00
      -11   -1    0    0    0    0  0.00000000000E+00  0.00000000000E+00  0.50000000000E+03  0.50000000000E+03  0.00000000000E+00 0.  1.
       11   -1    0    0    0    0 -0.00000000000E+00 -0.00000000000E+00 -0.50000000000E+03  0.50000000000E+03  0.00000000000E+00 0. -1.
  1000024    1    1    2    0    0  0.39762123948E+03 -0.90549742126E+02 -0.22617269148E+03  0.50000000000E+03  0.18039957800E+03 0. -1.
 -1000024    1    1    2    0    0 -0.39762123948E+03  0.90549742126E+02  0.22617269148E+03  0.50000000000E+03  0.18039957800E+03 0.  1.
</event>
<event>
 4   0  0.1092222E-03  0.2236068E+02  0.7957747E-01  0.1516063E+00
      -11   -1    0    0    0    0  0.00000000000E+00  0.00000000000E+00  0.50000000000E+03  0.50000000000E+03  0.00000000000E+00 0.  1.
       11   -1    0    0    0    0 -0.00000000000E+00 -0.00000000000E+00 -0.50000000000E+03  0.50000000000E+03  0.00000000000E+00 0. -1.
  1000024    1    1    2    0    0 -0.33870070435E+03 -0.14179811085E+03  0.28745629388E+03  0.50000000000E+03  0.18039957800E+03 0. -1.
 -1000024    1    1    2    0    0  0.33870070435E+03  0.14179811085E+03 -0.28745629388E+03  0.50000000000E+03  0.18039957800E+03 0.  1.
</event>
<event>
 4   0  0.1092222E-03  0.2236068E+02  0.7957747E-01  0.1516063E+00
      -11   -1    0    0    0    0  0.00000000000E+00  0.00000000000E+00  0.50000000000E+03  0.50000000000E+03  0.00000000000E+00 0.  1.
       11   -1    0    0    0    0 -0.00000000000E+00 -0.00000000000E+00 -0.50000000000E+03  0.50000000000E+03  0.00000000000E+00 0. -1.
  1000024    1    1    2    0    0  0.29586371296E+03 -0.46532022729E+02  0.35742891108E+03  0.50000000000E+03  0.18039957800E+03 0. -1.
 -1000024    1    1    2    0    0 -0.29586371296E+03  0.46532022729E+02 -0.35742891108E+03  0.50000000000E+03  0.18039957800E+03 0.  1.
</event>
<event>
 4   0  0.1092222E-03  0.2236068E+02  0.7957747E-01  0.1516063E+00
      -11   -1    0    0    0    0  0.00000000000E+00  0.00000000000E+00  0.50000000000E+03  0.50000000000E+03  0.00000000000E+00 0.  1.
       11   -1    0    0    0    0 -0.00000000000E+00 -0.00000000000E+00 -0.50000000000E+03  0.50000000000E+03  0.00000000000E+00 0. -1.
  1000024    1    1    2    0    0  0.32319617359E+03 -0.27254881090E+03  0.19676730244E+03  0.50000000000E+03  0.18039957800E+03 0. -1.
 -1000024    1    1    2    0    0 -0.32319617359E+03  0.27254881090E+03 -0.19676730244E+03  0.50000000000E+03  0.18039957800E+03 0.  1.
</event>
<event>
 4   0  0.6712789E-04  0.2236068E+02  0.7957747E-01  0.1516063E+00
      -11   -1    0    0    0    0  0.00000000000E+00  0.00000000000E+00  0.50000000000E+03  0.50000000000E+03  0.00000000000E+00 0.  1.
       11   -1    0    0    0    0 -0.00000000000E+00 -0.00000000000E+00 -0.50000000000E+03  0.50000000000E+03  0.00000000000E+00 0. -1.
  1000024    1    1    2    0    0 -0.10887566804E+03  0.19788421933E+03  0.40797538762E+03  0.50000000000E+03  0.18039957800E+03 0.  1.
 -1000024    1    1    2    0    0  0.10887566804E+03 -0.19788421933E+03 -0.40797538762E+03  0.50000000000E+03  0.18039957800E+03 0. -1.
</event>
<event>
 4   0  0.1092222E-03  0.2236068E+02  0.7957747E-01  0.1516063E+00
      -11   -1    0    0    0    0  0.00000000000E+00  0.00000000000E+00  0.50000000000E+03  0.50000000000E+03  0.00000000000E+00 0.  1.
       11   -1    0    0    0    0 -0.00000000000E+00 -0.00000000000E+00 -0.50000000000E+03  0.50000000000E+03  0.00000000000E+00 0. -1.
  1000024    1    1    2    0    0 -0.25596343571E+03  0.33278607254E+03 -0.20295847298E+03  0.50000000000E+03  0.18039957800E+03 0.  1.
 -1000024    1    1    2    0    0  0.25596343571E+03 -0.33278607254E+03  0.20295847298E+03  0.50000000000E+03  0.18039957800E+03 0. -1.
</event>
<event>
 4   0  0.6712789E-04  0.2236068E+02  0.7957747E-01  0.1516063E+00
      -11   -1    0    0    0    0  0.00000000000E+00  0.00000000000E+00  0.50000000000E+03  0.50000000000E+03  0.00000000000E+00 0.  1.
       11   -1    0    0    0    0 -0.00000000000E+00 -0.00000000000E+00 -0.50000000000E+03  0.50000000000E+03  0.00000000000E+00 0. -1.
  1000024    1    1    2    0    0 -0.34084467962E+03  0.24809672466E+03  0.19932112745E+03  0.50000000000E+03  0.18039957800E+03 0.  1.
 -1000024    1    1    2    0    0  0.34084467962E+03 -0.24809672466E+03 -0.19932112745E+03  0.50000000000E+03  0.18039957800E+03 0. -1.
</event>
<event>
 4   0  0.1092222E-03  0.2236068E+02  0.7957747E-01  0.1516063E+00
      -11   -1    0    0    0    0  0.00000000000E+00  0.00000000000E+00  0.50000000000E+03  0.50000000000E+03  0.00000000000E+00 0.  1.
       11   -1    0    0    0    0 -0.00000000000E+00 -0.00000000000E+00 -0.50000000000E+03  0.50000000000E+03  0.00000000000E+00 0. -1.
  1000024    1    1    2    0    0  0.24182039428E+03  0.30015102334E+03 -0.26246571654E+03  0.50000000000E+03  0.18039957800E+03 0.  1.
 -1000024    1    1    2    0    0 -0.24182039428E+03 -0.30015102334E+03  0.26246571654E+03  0.50000000000E+03  0.18039957800E+03 0. -1.
</event>
<event>
 4   0  0.6712789E-04  0.2236068E+02  0.7957747E-01  0.1516063E+00
      -11   -1    0    0    0    0  0.00000000000E+00  0.00000000000E+00  0.50000000000E+03  0.50000000000E+03  0.00000000000E+00 0.  1.
       11   -1    0    0    0    0 -0.00000000000E+00 -0.00000000000E+00 -0.50000000000E+03  0.50000000000E+03  0.00000000000E+00 0. -1.
  1000024    1    1    2    0    0 -0.17746436264E+03 -0.25752069513E+03  0.34589808301E+03  0.50000000000E+03  0.18039957800E+03 0. -1.
 -1000024    1    1    2    0    0  0.17746436264E+03  0.25752069513E+03 -0.34589808301E+03  0.50000000000E+03  0.18039957800E+03 0.  1.
</event>
<event>
 4   0  0.1092222E-03  0.2236068E+02  0.7957747E-01  0.1516063E+00
      -11   -1    0    0    0    0  0.00000000000E+00  0.00000000000E+00  0.50000000000E+03  0.50000000000E+03  0.00000000000E+00 0.  1.
       11   -1    0    0    0    0 -0.00000000000E+00 -0.00000000000E+00 -0.50000000000E+03  0.50000000000E+03  0.00000000000E+00 0. -1.
  1000024    1    1    2    0    0  0.90009247818E+02 -0.34411645739E+03 -0.30155959829E+03  0.50000000000E+03  0.18039957800E+03 0.  1.
 -1000024    1    1    2    0    0 -0.90009247818E+02  0.34411645739E+03  0.30155959829E+03  0.50000000000E+03  0.18039957800E+03 0. -1.
</event>
<event>
 4   0  0.7366543E-04  0.2236068E+02  0.7957747E-01  0.1516063E+00
      -11   -1    0    0    0    0  0.00000000000E+00  0.00000000000E+00  0.50000000000E+03  0.50000000000E+03  0.00000000000E+00 0.  1.
       11   -1    0    0    0    0 -0.00000000000E+00 -0.00000000000E+00 -0.50000000000E+03  0.50000000000E+03  0.00000000000E+00 0. -1.
  1000024    1    1    2    0    0 -0.41962254753E+03  0.19673989371E+03  0.51636460816E+02  0.50000000000E+03  0.18039957800E+03 0. -1.
 -1000024    1    1    2    0    0  0.41962254753E+03 -0.19673989371E+03 -0.51636460816E+02  0.50000000000E+03  0.18039957800E+03 0.  1.
</event>
<event>
 4   0  0.1092222E-03  0.2236068E+02  0.7957747E-01  0.1516063E+00
      -11   -1    0    0    0    0  0.00000000000E+00  0.00000000000E+00  0.50000000000E+03  0.50000000000E+03  0.00000000000E+00 0.  1.
       11   -1    0    0    0    0 -0.00000000000E+00 -0.00000000000E+00 -0.50000000000E+03  0.50000000000E+03  0.00000000000E+00 0. -1.
  1000024    1    1    2    0    0 -0.41304615230E+03  0.18251050137E+03 -0.11635628568E+03  0.50000000000E+03  0.18039957800E+03 0.  1.
 -1000024    1    1    2    0    0  0.41304615230E+03 -0.18251050137E+03  0.11635628568E+03  0.50000000000E+03  0.18039957800E+03 0. -1.
</event>
<event>
 4   0  0.1092222E-03  0.2236068E+02  0.7957747E-01  0.1516063E+00
      -11   -1    0    0    0    0  0.00000000000E+00  0.00000000000E+00  0.50000000000E+03  0.50000000000E+03  0.00000000000E+00 0.  1.
       11   -1    0    0    0    0 -0.00000000000E+00 -0.00000000000E+00 -0.50000000000E+03  0.50000000000E+03  0.00000000000E+00 0. -1.
  1000024    1    1    2    0    0  0.26814233070E+03 -0.31510686170E+03  0.21508916396E+03  0.50000000000E+03  0.18039957800E+03 0.  1.
 -1000024    1    1    2    0    0 -0.26814233070E+03  0.31510686170E+03 -0.21508916396E+03  0.50000000000E+03  0.18039957800E+03 0. -1.
</event>
<event>
 4   0  0.1092222E-03  0.2236068E+02  0.7957747E-01  0.1516063E+00
      -11   -1    0    0    0    0  0.00000000000E+00  0.00000000000E+00  0.50000000000E+03  0.50000000000E+03  0.00000000000E+00 0.  1.
       11   -1    0    0    0    0 -0.00000000000E+00 -0.00000000000E+00 -0.50000000000E+03  0.50000000000E+03  0.00000000000E+00 0. -1.
  1000024    1    1    2    0    0  0.33134474298E+03  0.21194575980E+03  0.25049081513E+03  0.50000000000E+03  0.18039957800E+03 0. -1.
 -1000024    1    1    2    0    0 -0.33134474298E+03 -0.21194575980E+03 -0.25049081513E+03  0.50000000000E+03  0.18039957800E+03 0.  1.
</event>
<event>
 4   0  0.7366543E-04  0.2236068E+02  0.7957747E-01  0.1516063E+00
      -11   -1    0    0    0    0  0.00000000000E+00  0.00000000000E+00  0.50000000000E+03  0.50000000000E+03  0.00000000000E+00 0.  1.
       11   -1    0    0    0    0 -0.00000000000E+00 -0.00000000000E+00 -0.50000000000E+03  0.50000000000E+03  0.00000000000E+00 0. -1.
  1000024    1    1    2    0    0  0.61935279012E+01 -0.39299244466E+03  0.25094734689E+03  0.50000000000E+03  0.18039957800E+03 0.  1.
 -1000024    1    1    2    0    0 -0.61935279012E+01  0.39299244466E+03 -0.25094734689E+03  0.50000000000E+03  0.18039957800E+03 0. -1.
</event>
<event>
 4   0  0.6712789E-04  0.2236068E+02  0.7957747E-01  0.1516063E+00
      -11   -1    0    0    0    0  0.00000000000E+00  0.00000000000E+00  0.50000000000E+03  0.50000000000E+03  0.00000000000E+00 0.  1.
       11   -1    0    0    0    0 -0.00000000000E+00 -0.00000000000E+00 -0.50000000000E+03  0.50000000000E+03  0.00000000000E+00 0. -1.
  1000024    1    1    2    0    0 -0.26783738880E+03 -0.19465114272E+03  0.32837487428E+03  0.50000000000E+03  0.18039957800E+03 0.  1.
 -1000024    1    1    2    0    0  0.26783738880E+03  0.19465114272E+03 -0.32837487428E+03  0.50000000000E+03  0.18039957800E+03 0.  1.
</event>
<event>
 4   0  0.7366543E-04  0.2236068E+02  0.7957747E-01  0.1516063E+00
      -11   -1    0    0    0    0  0.00000000000E+00  0.00000000000E+00  0.50000000000E+03  0.50000000000E+03  0.00000000000E+00 0.  1.
       11   -1    0    0    0    0 -0.00000000000E+00 -0.00000000000E+00 -0.50000000000E+03  0.50000000000E+03  0.00000000000E+00 0. -1.
  1000024    1    1    2    0    0  0.33559250375E+03  0.25197568801E+03  0.20332711658E+03  0.50000000000E+03  0.18039957800E+03 0. -1.
 -1000024    1    1    2    0    0 -0.33559250375E+03 -0.25197568801E+03 -0.20332711658E+03  0.50000000000E+03  0.18039957800E+03 0.  1.
</event>
<event>
 4   0  0.1092222E-03  0.2236068E+02  0.7957747E-01  0.1516063E+00
      -11   -1    0    0    0    0  0.00000000000E+00  0.00000000000E+00  0.50000000000E+03  0.50000000000E+03  0.00000000000E+00 0.  1.
       11   -1    0    0    0    0 -0.00000000000E+00 -0.00000000000E+00 -0.50000000000E+03  0.50000000000E+03  0.00000000000E+00 0. -1.
  1000024    1    1    2    0    0  0.11113067264E+03 -0.40939149206E+03  0.19366097202E+03  0.50000000000E+03  0.18039957800E+03 0.  1.
 -1000024    1    1    2    0    0 -0.11113067264E+03  0.40939149206E+03 -0.19366097202E+03  0.50000000000E+03  0.18039957800E+03 0. -1.
</event>
<event>
 4   0  0.6712789E-04  0.2236068E+02  0.7957747E-01  0.1516063E+00
      -11   -1    0    0    0    0  0.00000000000E+00  0.00000000000E+00  0.50000000000E+03  0.50000000000E+03  0.00000000000E+00 0.  1.
       11   -1    0    0    0    0 -0.00000000000E+00 -0.00000000000E+00 -0.50000000000E+03  0.50000000000E+03  0.00000000000E+00 0. -1.
  1000024    1    1    2    0    0  0.53548241184E+02 -0.17897714928E+03  0.42726544227E+03  0.50000000000E+03  0.18039957800E+03 0.  1.
 -1000024    1    1    2    0    0 -0.53548241184E+02  0.17897714928E+03 -0.42726544227E+03  0.50000000000E+03  0.18039957800E+03 0.  1.
</event>
<event>
 4   0  0.1092222E-03  0.2236068E+02  0.7957747E-01  0.1516063E+00
      -11   -1    0    0    0    0  0.00000000000E+00  0.00000000000E+00  0.50000000000E+03  0.50000000000E+03  0.00000000000E+00 0.  1.
       11   -1    0    0    0    0 -0.00000000000E+00 -0.00000000000E+00 -0.50000000000E+03  0.50000000000E+03  0.00000000000E+00 0. -1.
  1000024    1    1    2    0    0  0.41131042777E+03  0.17311690142E+03  0.13531541931E+03  0.50000000000E+03  0.18039957800E+03 0.  1.
 -1000024    1    1    2    0    0 -0.41131042777E+03 -0.17311690142E+03 -0.13531541931E+03  0.50000000000E+03  0.18039957800E+03 0. -1.
</event>
<event>
 4   0  0.7366543E-04  0.2236068E+02  0.7957747E-01  0.1516063E+00
      -11   -1    0    0    0    0  0.00000000000E+00  0.00000000000E+00  0.50000000000E+03  0.50000000000E+03  0.00000000000E+00 0.  1.
       11   -1    0    0    0    0 -0.00000000000E+00 -0.00000000000E+00 -0.50000000000E+03  0.50000000000E+03  0.00000000000E+00 0. -1.
  1000024    1    1    2    0    0  0.14943568307E+03  0.34951820233E+03  0.27011478138E+03  0.50000000000E+03  0.18039957800E+03 0.  1.
 -1000024    1    1    2    0    0 -0.14943568307E+03 -0.34951820233E+03 -0.27011478138E+03  0.50000000000E+03  0.18039957800E+03 0. -1.
</event>
<event>
 4   0  0.7366543E-04  0.2236068E+02  0.7957747E-01  0.1516063E+00
      -11   -1    0    0    0    0  0.00000000000E+00  0.00000000000E+00  0.50000000000E+03  0.50000000000E+03  0.00000000000E+00 0.  1.
       11   -1    0    0    0    0 -0.00000000000E+00 -0.00000000000E+00 -0.50000000000E+03  0.50000000000E+03  0.00000000000E+00 0. -1.
  1000024    1    1    2    0    0  0.37293215869E+03  0.18497797054E+03  0.21014458758E+03  0.50000000000E+03  0.18039957800E+03 0.  1.
 -1000024    1    1    2    0    0 -0.37293215869E+03 -0.18497797054E+03 -0.21014458758E+03  0.50000000000E+03  0.18039957800E+03 0. -1.
</event>
<event>
 4   0  0.1092222E-03  0.2236068E+02  0.7957747E-01  0.1516063E+00
      -11   -1    0    0    0    0  0.00000000000E+00  0.00000000000E+00  0.50000000000E+03  0.50000000000E+03  0.00000000000E+00 0.  1.
       11   -1    0    0    0    0 -0.00000000000E+00 -0.00000000000E+00 -0.50000000000E+03  0.50000000000E+03  0.00000000000E+00 0. -1.
  1000024    1    1    2    0    0  0.18177840928E+03 -0.11770839138E+03  0.41298587963E+03  0.50000000000E+03  0.18039957800E+03 0. -1.
 -1000024    1    1    2    0    0 -0.18177840928E+03  0.11770839138E+03 -0.41298587963E+03  0.50000000000E+03  0.18039957800E+03 0.  1.
</event>
<event>
 4   0  0.6712789E-04  0.2236068E+02  0.7957747E-01  0.1516063E+00
      -11   -1    0    0    0    0  0.00000000000E+00  0.00000000000E+00  0.50000000000E+03  0.50000000000E+03  0.00000000000E+00 0.  1.
       11   -1    0    0    0    0 -0.00000000000E+00 -0.00000000000E+00 -0.50000000000E+03  0.50000000000E+03  0.00000000000E+00 0. -1.
  1000024    1    1    2    0    0 -0.41796927807E+01  0.10501100193E+03  0.45432500691E+03  0.50000000000E+03  0.18039957800E+03 0. -1.
 -1000024    1    1    2    0    0  0.41796927807E+01 -0.10501100193E+03 -0.45432500691E+03  0.50000000000E+03  0.18039957800E+03 0.  1.
</event>
<event>
 4   0  0.6712789E-04  0.2236068E+02  0.7957747E-01  0.1516063E+00
      -11   -1    0    0    0    0  0.00000000000E+00  0.00000000000E+00  0.50000000000E+03  0.50000000000E+03  0.00000000000E+00 0.  1.
       11   -1    0    0    0    0 -0.00000000000E+00 -0.00000000000E+00 -0.50000000000E+03  0.50000000000E+03  0.00000000000E+00 0. -1.
  1000024    1    1    2    0    0  0.22823912663E+03 -0.36169795721E+03  0.18584262451E+03  0.50000000000E+03  0.18039957800E+03 0.  1.
 -1000024    1    1    2    0    0 -0.22823912663E+03  0.36169795721E+03 -0.18584262451E+03  0.50000000000E+03  0.18039957800E+03 0. -1.
</event>
<event>
 4   0  0.1092222E-03  0.2236068E+02  0.7957747E-01  0.1516063E+00
      -11   -1    0    0    0    0  0.00000000000E+00  0.00000000000E+00  0.50000000000E+03  0.50000000000E+03  0.00000000000E+00 0.  1.
       11   -1    0    0    0    0 -0.00000000000E+00 -0.00000000000E+00 -0.50000000000E+03  0.50000000000E+03  0.00000000000E+00 0. -1.
  1000024    1    1    2    0    0 -0.11038850720E+03 -0.44721942019E+03 -0.72561421837E+02  0.50000000000E+03  0.18039957800E+03 0.  1.
 -1000024    1    1    2    0    0  0.11038850720E+03  0.44721942019E+03  0.72561421837E+02  0.50000000000E+03  0.18039957800E+03 0. -1.
</event>
<event>
 4   0  0.1092222E-03  0.2236068E+02  0.7957747E-01  0.1516063E+00
      -11   -1    0    0    0    0  0.00000000000E+00  0.00000000000E+00  0.50000000000E+03  0.50000000000E+03  0.00000000000E+00 0.  1.
       11   -1    0    0    0    0 -0.00000000000E+00 -0.00000000000E+00 -0.50000000000E+03  0.50000000000E+03  0.00000000000E+00 0. -1.
  1000024    1    1    2    0    0 -0.24300914362E+03  0.33844323677E+03  0.20942474509E+03  0.50000000000E+03  0.18039957800E+03 0.  1.
 -1000024    1    1    2    0    0  0.24300914362E+03 -0.33844323677E+03 -0.20942474509E+03  0.50000000000E+03  0.18039957800E+03 0. -1.
</event>
<event>
 4   0  0.6712789E-04  0.2236068E+02  0.7957747E-01  0.1516063E+00
      -11   -1    0    0    0    0  0.00000000000E+00  0.00000000000E+00  0.50000000000E+03  0.50000000000E+03  0.00000000000E+00 0.  1.
       11   -1    0    0    0    0 -0.00000000000E+00 -0.00000000000E+00 -0.50000000000E+03  0.50000000000E+03  0.00000000000E+00 0. -1.
  1000024    1    1    2    0    0 -0.24254478166E+03  0.10998736284E+02  0.39812943743E+03  0.50000000000E+03  0.18039957800E+03 0.  1.
 -1000024    1    1    2    0    0  0.24254478166E+03 -0.10998736284E+02 -0.39812943743E+03  0.50000000000E+03  0.18039957800E+03 0. -1.
</event>
<event>
 4   0  0.1092222E-03  0.2236068E+02  0.7957747E-01  0.1516063E+00
      -11   -1    0    0    0    0  0.00000000000E+00  0.00000000000E+00  0.50000000000E+03  0.50000000000E+03  0.00000000000E+00 0.  1.
       11   -1    0    0    0    0 -0.00000000000E+00 -0.00000000000E+00 -0.50000000000E+03  0.50000000000E+03  0.00000000000E+00 0. -1.
  1000024    1    1    2    0    0 -0.49598844560E+02  0.41330130832E+02  0.46183088589E+03  0.50000000000E+03  0.18039957800E+03 0.  1.
 -1000024    1    1    2    0    0  0.49598844560E+02 -0.41330130832E+02 -0.46183088589E+03  0.50000000000E+03  0.18039957800E+03 0.  1.
</event>
<event>
 4   0  0.6712789E-04  0.2236068E+02  0.7957747E-01  0.1516063E+00
      -11   -1    0    0    0    0  0.00000000000E+00  0.00000000000E+00  0.50000000000E+03  0.50000000000E+03  0.00000000000E+00 0.  1.
       11   -1    0    0    0    0 -0.00000000000E+00 -0.00000000000E+00 -0.50000000000E+03  0.50000000000E+03  0.00000000000E+00 0. -1.
  1000024    1    1    2    0    0 -0.45981664596E+03  0.31143379194E+02 -0.71096654552E+02  0.50000000000E+03  0.18039957800E+03 0. -1.
 -1000024    1    1    2    0    0  0.45981664596E+03 -0.31143379194E+02  0.71096654552E+02  0.50000000000E+03  0.18039957800E+03 0.  1.
</event>
<event>
 4   0  0.7366543E-04  0.2236068E+02  0.7957747E-01  0.1516063E+00
      -11   -1    0    0    0    0  0.00000000000E+00  0.00000000000E+00  0.50000000000E+03  0.50000000000E+03  0.00000000000E+00 0.  1.
       11   -1    0    0    0    0 -0.00000000000E+00 -0.00000000000E+00 -0.50000000000E+03  0.50000000000E+03  0.00000000000E+00 0. -1.
  1000024    1    1    2    0    0  0.41406890651E+03  0.18765513194E+03 -0.10386762908E+03  0.50000000000E+03  0.18039957800E+03 0.  1.
 -1000024    1    1    2    0    0 -0.41406890651E+03 -0.18765513194E+03  0.10386762908E+03  0.50000000000E+03  0.18039957800E+03 0. -1.
</event>
<event>
 4   0  0.7366543E-04  0.2236068E+02  0.7957747E-01  0.1516063E+00
      -11   -1    0    0    0    0  0.00000000000E+00  0.00000000000E+00  0.50000000000E+03  0.50000000000E+03  0.00000000000E+00 0.  1.
       11   -1    0    0    0    0 -0.00000000000E+00 -0.00000000000E+00 -0.50000000000E+03  0.50000000000E+03  0.00000000000E+00 0. -1.
  1000024    1    1    2    0    0  0.60221570016E+02 -0.38570059746E+03  0.25507725082E+03  0.50000000000E+03  0.18039957800E+03 0.  1.
 -1000024    1    1    2    0    0 -0.60221570016E+02  0.38570059746E+03 -0.25507725082E+03  0.50000000000E+03  0.18039957800E+03 0. -1.
</event>
<event>
 4   0  0.1092222E-03  0.2236068E+02  0.7957747E-01  0.1516063E+00
      -11   -1    0    0    0    0  0.00000000000E+00  0.00000000000E+00  0.50000000000E+03  0.50000000000E+03  0.00000000000E+00 0.  1.
       11   -1    0    0    0    0 -0.00000000000E+00 -0.00000000000E+00 -0.50000000000E+03  0.50000000000E+03  0.00000000000E+00 0. -1.
  1000024    1    1    2    0    0  0.35110938480E+03 -0.27828993928E+03  0.12935571830E+03  0.50000000000E+03  0.18039957800E+03 0.  1.
 -1000024    1    1    2    0    0 -0.35110938480E+03  0.27828993928E+03 -0.12935571830E+03  0.50000000000E+03  0.18039957800E+03 0. -1.
</event>
<event>
 4   0  0.1092222E-03  0.2236068E+02  0.7957747E-01  0.1516063E+00
      -11   -1    0    0    0    0  0.00000000000E+00  0.00000000000E+00  0.50000000000E+03  0.50000000000E+03  0.00000000000E+00 0.  1.
       11   -1    0    0    0    0 -0.00000000000E+00 -0.00000000000E+00 -0.50000000000E+03  0.50000000000E+03  0.00000000000E+00 0. -1.
  1000024    1    1    2    0    0 -0.24283405499E+03  0.16050425266E+03  0.36431579553E+03  0.50000000000E+03  0.18039957800E+03 0.  1.
 -1000024    1    1    2    0    0  0.24283405499E+03 -0.16050425266E+03 -0.36431579553E+03  0.50000000000E+03  0.18039957800E+03 0.  1.
</event>
<event>
 4   0  0.7366543E-04  0.2236068E+02  0.7957747E-01  0.1516063E+00
      -11   -1    0    0    0    0  0.00000000000E+00  0.00000000000E+00  0.50000000000E+03  0.50000000000E+03  0.00000000000E+00 0.  1.
       11   -1    0    0    0    0 -0.00000000000E+00 -0.00000000000E+00 -0.50000000000E+03  0.50000000000E+03  0.00000000000E+00 0. -1.
  1000024    1    1    2    0    0  0.28075802619E+03 -0.94891655108E+02  0.36003679920E+03  0.50000000000E+03  0.18039957800E+03 0.  1.
 -1000024    1    1    2    0    0 -0.28075802619E+03  0.94891655108E+02 -0.36003679920E+03  0.50000000000E+03  0.18039957800E+03 0. -1.
</event>
<event>
 4   0  0.7366543E-04  0.2236068E+02  0.7957747E-01  0.1516063E+00
      -11   -1    0    0    0    0  0.00000000000E+00  0.00000000000E+00  0.50000000000E+03  0.50000000000E+03  0.00000000000E+00 0.  1.
       11   -1    0    0    0    0 -0.00000000000E+00 -0.00000000000E+00 -0.50000000000E+03  0.50000000000E+03  0.00000000000E+00 0. -1.
  1000024    1    1    2    0    0 -0.76217814772E+02 -0.43123393786E+03 -0.16026268376E+03  0.50000000000E+03  0.18039957800E+03 0.  1.
 -1000024    1    1    2    0    0  0.76217814772E+02  0.43123393786E+03  0.16026268376E+03  0.50000000000E+03  0.18039957800E+03 0. -1.
</event>
<event>
 4   0  0.7366543E-04  0.2236068E+02  0.7957747E-01  0.1516063E+00
      -11   -1    0    0    0    0  0.00000000000E+00  0.00000000000E+00  0.50000000000E+03  0.50000000000E+03  0.00000000000E+00 0.  1.
       11   -1    0    0    0    0 -0.00000000000E+00 -0.00000000000E+00 -0.50000000000E+03  0.50000000000E+03  0.00000000000E+00 0. -1.
  1000024    1    1    2    0    0  0.18190947343E+03  0.30402555155E+03  0.30320521061E+03  0.50000000000E+03  0.18039957800E+03 0.  1.
 -1000024    1    1    2    0    0 -0.18190947343E+03 -0.30402555155E+03 -0.30320521061E+03  0.50000000000E+03  0.18039957800E+03 0. -1.
</event>
<event>
 4   0  0.6712789E-04  0.2236068E+02  0.7957747E-01  0.1516063E+00
      -11   -1    0    0    0    0  0.00000000000E+00  0.00000000000E+00  0.50000000000E+03  0.50000000000E+03  0.00000000000E+00 0.  1.
       11   -1    0    0    0    0 -0.00000000000E+00 -0.00000000000E+00 -0.50000000000E+03  0.50000000000E+03  0.00000000000E+00 0. -1.
  1000024    1    1    2    0    0  0.36739963817E+03  0.26686653391E+03  0.10609312515E+03  0.50000000000E+03  0.18039957800E+03 0. -1.
 -1000024    1    1    2    0    0 -0.36739963817E+03 -0.26686653391E+03 -0.10609312515E+03  0.50000000000E+03  0.18039957800E+03 0.  1.
</event>
<event>
 4   0  0.7366543E-04  0.2236068E+02  0.7957747E-01  0.1516063E+00
      -11   -1    0    0    0    0  0.00000000000E+00  0.00000000000E+00  0.50000000000E+03  0.50000000000E+03  0.00000000000E+00 0.  1.
       11   -1    0    0    0    0 -0.00000000000E+00 -0.00000000000E+00 -0.50000000000E+03  0.50000000000E+03  0.00000000000E+00 0. -1.
  1000024    1    1    2    0    0  0.33798135897E+03  0.25106998083E+03  0.20047059130E+03  0.50000000000E+03  0.18039957800E+03 0. -1.
 -1000024    1    1    2    0    0 -0.33798135897E+03 -0.25106998083E+03 -0.20047059130E+03  0.50000000000E+03  0.18039957800E+03 0.  1.
</event>
<event>
 4   0  0.1092222E-03  0.2236068E+02  0.7957747E-01  0.1516063E+00
      -11   -1    0    0    0    0  0.00000000000E+00  0.00000000000E+00  0.50000000000E+03  0.50000000000E+03  0.00000000000E+00 0.  1.
       11   -1    0    0    0    0 -0.00000000000E+00 -0.00000000000E+00 -0.50000000000E+03  0.50000000000E+03  0.00000000000E+00 0. -1.
  1000024    1    1    2    0    0  0.26237028631E+03 -0.16768508881E+03  0.34713043098E+03  0.50000000000E+03  0.18039957800E+03 0.  1.
 -1000024    1    1    2    0    0 -0.26237028631E+03  0.16768508881E+03 -0.34713043098E+03  0.50000000000E+03  0.18039957800E+03 0. -1.
</event>
<event>
 4   0  0.1092222E-03  0.2236068E+02  0.7957747E-01  0.1516063E+00
      -11   -1    0    0    0    0  0.00000000000E+00  0.00000000000E+00  0.50000000000E+03  0.50000000000E+03  0.00000000000E+00 0.  1.
       11   -1    0    0    0    0 -0.00000000000E+00 -0.00000000000E+00 -0.50000000000E+03  0.50000000000E+03  0.00000000000E+00 0. -1.
  1000024    1    1    2    0    0 -0.43005221686E+03 -0.10303915749E+03  0.14796626322E+03  0.50000000000E+03  0.18039957800E+03 0. -1.
 -1000024    1    1    2    0    0  0.43005221686E+03  0.10303915749E+03 -0.14796626322E+03  0.50000000000E+03  0.18039957800E+03 0.  1.
</event>
<event>
 4   0  0.7366543E-04  0.2236068E+02  0.7957747E-01  0.1516063E+00
      -11   -1    0    0    0    0  0.00000000000E+00  0.00000000000E+00  0.50000000000E+03  0.50000000000E+03  0.00000000000E+00 0.  1.
       11   -1    0    0    0    0 -0.00000000000E+00 -0.00000000000E+00 -0.50000000000E+03  0.50000000000E+03  0.00000000000E+00 0. -1.
  1000024    1    1    2    0    0 -0.19160931217E+03  0.39098083657E+03  0.16696062166E+03  0.50000000000E+03  0.18039957800E+03 0. -1.
 -1000024    1    1    2    0    0  0.19160931217E+03 -0.39098083657E+03 -0.16696062166E+03  0.50000000000E+03  0.18039957800E+03 0.  1.
</event>
<event>
 4   0  0.1092222E-03  0.2236068E+02  0.7957747E-01  0.1516063E+00
      -11   -1    0    0    0    0  0.00000000000E+00  0.00000000000E+00  0.50000000000E+03  0.50000000000E+03  0.00000000000E+00 0.  1.
       11   -1    0    0    0    0 -0.00000000000E+00 -0.00000000000E+00 -0.50000000000E+03  0.50000000000E+03  0.00000000000E+00 0. -1.
  1000024    1    1    2    0    0 -0.28185296025E+03 -0.33630456453E+03 -0.15784213927E+03  0.50000000000E+03  0.18039957800E+03 0. -1.
 -1000024    1    1    2    0    0  0.28185296025E+03  0.33630456453E+03  0.15784213927E+03  0.50000000000E+03  0.18039957800E+03 0.  1.
</event>
<event>
 4   0  0.1092222E-03  0.2236068E+02  0.7957747E-01  0.1516063E+00
      -11   -1    0    0    0    0  0.00000000000E+00  0.00000000000E+00  0.50000000000E+03  0.50000000000E+03  0.00000000000E+00 0.  1.
       11   -1    0    0    0    0 -0.00000000000E+00 -0.00000000000E+00 -0.50000000000E+03  0.50000000000E+03  0.00000000000E+00 0. -1.
  1000024    1    1    2    0    0  0.42397831756E+03  0.13104394653E+03  0.14326849819E+03  0.50000000000E+03  0.18039957800E+03 0.  1.
 -1000024    1    1    2    0    0 -0.42397831756E+03 -0.13104394653E+03 -0.14326849819E+03  0.50000000000E+03  0.18039957800E+03 0. -1.
</event>
<event>
 4   0  0.7366543E-04  0.2236068E+02  0.7957747E-01  0.1516063E+00
      -11   -1    0    0    0    0  0.00000000000E+00  0.00000000000E+00  0.50000000000E+03  0.50000000000E+03  0.00000000000E+00 0.  1.
       11   -1    0    0    0    0 -0.00000000000E+00 -0.00000000000E+00 -0.50000000000E+03  0.50000000000E+03  0.00000000000E+00 0. -1.
  1000024    1    1    2    0    0  0.14306415622E+03  0.41581943119E+03  0.15518646882E+03  0.50000000000E+03  0.18039957800E+03 0.  1.
 -1000024    1    1    2    0    0 -0.14306415622E+03 -0.41581943119E+03 -0.15518646882E+03  0.50000000000E+03  0.18039957800E+03 0. -1.
</event>
<event>
 4   0  0.6712789E-04  0.2236068E+02  0.7957747E-01  0.1516063E+00
      -11   -1    0    0    0    0  0.00000000000E+00  0.00000000000E+00  0.50000000000E+03  0.50000000000E+03  0.00000000000E+00 0.  1.
       11   -1    0    0    0    0 -0.00000000000E+00 -0.00000000000E+00 -0.50000000000E+03  0.50000000000E+03  0.00000000000E+00 0. -1.
  1000024    1    1    2    0    0 -0.34213599926E+03  0.83075102521E+02  0.30577357246E+03  0.50000000000E+03  0.18039957800E+03 0. -1.
 -1000024    1    1    2    0    0  0.34213599926E+03 -0.83075102521E+02 -0.30577357246E+03  0.50000000000E+03  0.18039957800E+03 0.  1.
</event>
<event>
 4   0  0.6712789E-04  0.2236068E+02  0.7957747E-01  0.1516063E+00
      -11   -1    0    0    0    0  0.00000000000E+00  0.00000000000E+00  0.50000000000E+03  0.50000000000E+03  0.00000000000E+00 0.  1.
       11   -1    0    0    0    0 -0.00000000000E+00 -0.00000000000E+00 -0.50000000000E+03  0.50000000000E+03  0.00000000000E+00 0. -1.
  1000024    1    1    2    0    0 -0.18222458110E+03  0.20631737429E+03  0.37640846878E+03  0.50000000000E+03  0.18039957800E+03 0.  1.
 -1000024    1    1    2    0    0  0.18222458110E+03 -0.20631737429E+03 -0.37640846878E+03  0.50000000000E+03  0.18039957800E+03 0. -1.
</event>
<event>
 4   0  0.1092222E-03  0.2236068E+02  0.7957747E-01  0.1516063E+00
      -11   -1    0    0    0    0  0.00000000000E+00  0.00000000000E+00  0.50000000000E+03  0.50000000000E+03  0.00000000000E+00 0.  1.
       11   -1    0    0    0    0 -0.00000000000E+00 -0.00000000000E+00 -0.50000000000E+03  0.50000000000E+03  0.00000000000E+00 0. -1.
  1000024    1    1    2    0    0 -0.32063029918E+03  0.21584279317E+03  0.26089095834E+03  0.50000000000E+03  0.18039957800E+03 0. -1.
 -1000024    1    1    2    0    0  0.32063029918E+03 -0.21584279317E+03 -0.26089095834E+03  0.50000000000E+03  0.18039957800E+03 0.  1.
</event>
<event>
 4   0  0.7366543E-04  0.2236068E+02  0.7957747E-01  0.1516063E+00
      -11   -1    0    0    0    0  0.00000000000E+00  0.00000000000E+00  0.50000000000E+03  0.50000000000E+03  0.00000000000E+00 0.  1.
       11   -1    0    0    0    0 -0.00000000000E+00 -0.00000000000E+00 -0.50000000000E+03  0.50000000000E+03  0.00000000000E+00 0. -1.
  1000024    1    1    2    0    0  0.38574909414E+03 -0.96655015518E+02  0.24353939435E+03  0.50000000000E+03  0.18039957800E+03 0.  1.
 -1000024    1    1    2    0    0 -0.38574909414E+03  0.96655015518E+02 -0.24353939435E+03  0.50000000000E+03  0.18039957800E+03 0. -1.
</event>
<event>
 4   0  0.1092222E-03  0.2236068E+02  0.7957747E-01  0.1516063E+00
      -11   -1    0    0    0    0  0.00000000000E+00  0.00000000000E+00  0.50000000000E+03  0.50000000000E+03  0.00000000000E+00 0.  1.
       11   -1    0    0    0    0 -0.00000000000E+00 -0.00000000000E+00 -0.50000000000E+03  0.50000000000E+03  0.00000000000E+00 0. -1.
  1000024    1    1    2    0    0 -0.16547020422E+03 -0.36357380950E+03  0.24060276146E+03  0.50000000000E+03  0.18039957800E+03 0.  1.
 -1000024    1    1    2    0    0  0.16547020422E+03  0.36357380950E+03 -0.24060276146E+03  0.50000000000E+03  0.18039957800E+03 0. -1.
</event>
<event>
 4   0  0.7366543E-04  0.2236068E+02  0.7957747E-01  0.1516063E+00
      -11   -1    0    0    0    0  0.00000000000E+00  0.00000000000E+00  0.50000000000E+03  0.50000000000E+03  0.00000000000E+00 0.  1.
       11   -1    0    0    0    0 -0.00000000000E+00 -0.00000000000E+00 -0.50000000000E+03  0.50000000000E+03  0.00000000000E+00 0. -1.
  1000024    1    1    2    0    0 -0.12772011956E+03  0.85697502324E+02  0.44022664778E+03  0.50000000000E+03  0.18039957800E+03 0. -1.
 -1000024    1    1    2    0    0  0.12772011956E+03 -0.85697502324E+02 -0.44022664778E+03  0.50000000000E+03  0.18039957800E+03 0. -1.
</event>
<event>
 4   0  0.1092222E-03  0.2236068E+02  0.7957747E-01  0.1516063E+00
      -11   -1    0    0    0    0  0.00000000000E+00  0.00000000000E+00  0.50000000000E+03  0.50000000000E+03  0.00000000000E+00 0.  1.
       11   -1    0    0    0    0 -0.00000000000E+00 -0.00000000000E+00 -0.50000000000E+03  0.50000000000E+03  0.00000000000E+00 0. -1.
  1000024    1    1    2    0    0  0.29689063965E+03  0.34071660815E+02  0.35798193010E+03  0.50000000000E+03  0.18039957800E+03 0. -1.
 -1000024    1    1    2    0    0 -0.29689063965E+03 -0.34071660815E+02 -0.35798193010E+03  0.50000000000E+03  0.18039957800E+03 0. -1.
</event>
<event>
 4   0  0.6712789E-04  0.2236068E+02  0.7957747E-01  0.1516063E+00
      -11   -1    0    0    0    0  0.00000000000E+00  0.00000000000E+00  0.50000000000E+03  0.50000000000E+03  0.00000000000E+00 0.  1.
       11   -1    0    0    0    0 -0.00000000000E+00 -0.00000000000E+00 -0.50000000000E+03  0.50000000000E+03  0.00000000000E+00 0. -1.
  1000024    1    1    2    0    0 -0.40438211472E+03 -0.18061174844E+03  0.14598114219E+03  0.50000000000E+03  0.18039957800E+03 0.  1.
 -1000024    1    1    2    0    0  0.40438211472E+03  0.18061174844E+03 -0.14598114219E+03  0.50000000000E+03  0.18039957800E+03 0. -1.
</event>
<event>
 4   0  0.6712789E-04  0.2236068E+02  0.7957747E-01  0.1516063E+00
      -11   -1    0    0    0    0  0.00000000000E+00  0.00000000000E+00  0.50000000000E+03  0.50000000000E+03  0.00000000000E+00 0.  1.
       11   -1    0    0    0    0 -0.00000000000E+00 -0.00000000000E+00 -0.50000000000E+03  0.50000000000E+03  0.00000000000E+00 0. -1.
  1000024    1    1    2    0    0 -0.41947715001E+03  0.63827349624E+02  0.19344503693E+03  0.50000000000E+03  0.18039957800E+03 0. -1.
 -1000024    1    1    2    0    0  0.41947715001E+03 -0.63827349624E+02 -0.19344503693E+03  0.50000000000E+03  0.18039957800E+03 0.  1.
</event>
<event>
 4   0  0.1092222E-03  0.2236068E+02  0.7957747E-01  0.1516063E+00
      -11   -1    0    0    0    0  0.00000000000E+00  0.00000000000E+00  0.50000000000E+03  0.50000000000E+03  0.00000000000E+00 0.  1.
       11   -1    0    0    0    0 -0.00000000000E+00 -0.00000000000E+00 -0.50000000000E+03  0.50000000000E+03  0.00000000000E+00 0. -1.
  1000024    1    1    2    0    0  0.34171112785E+03 -0.29956884094E+03  0.10463272383E+03  0.50000000000E+03  0.18039957800E+03 0.  1.
 -1000024    1    1    2    0    0 -0.34171112785E+03  0.29956884094E+03 -0.10463272383E+03  0.50000000000E+03  0.18039957800E+03 0. -1.
</event>
<event>
 4   0  0.1092222E-03  0.2236068E+02  0.7957747E-01  0.1516063E+00
      -11   -1    0    0    0    0  0.00000000000E+00  0.00000000000E+00  0.50000000000E+03  0.50000000000E+03  0.00000000000E+00 0.  1.
       11   -1    0    0    0    0 -0.00000000000E+00 -0.00000000000E+00 -0.50000000000E+03  0.50000000000E+03  0.00000000000E+00 0. -1.
  1000024    1    1    2    0    0 -0.65640649555E+02 -0.20797103666E+03  0.41218363055E+03  0.50000000000E+03  0.18039957800E+03 0.  1.
 -1000024    1    1    2    0    0  0.65640649555E+02  0.20797103666E+03 -0.41218363055E+03  0.50000000000E+03  0.18039957800E+03 0.  1.
</event>
<event>
 4   0  0.6712789E-04  0.2236068E+02  0.7957747E-01  0.1516063E+00
      -11   -1    0    0    0    0  0.00000000000E+00  0.00000000000E+00  0.50000000000E+03  0.50000000000E+03  0.00000000000E+00 0.  1.
       11   -1    0    0    0    0 -0.00000000000E+00 -0.00000000000E+00 -0.50000000000E+03  0.50000000000E+03  0.00000000000E+00 0. -1.
  1000024    1    1    2    0    0  0.37888777282E+03 -0.14210001669E+03  0.23174907362E+03  0.50000000000E+03  0.18039957800E+03 0. -1.
 -1000024    1    1    2    0    0 -0.37888777282E+03  0.14210001669E+03 -0.23174907362E+03  0.50000000000E+03  0.18039957800E+03 0.  1.
</event>
<event>
 4   0  0.7366543E-04  0.2236068E+02  0.7957747E-01  0.1516063E+00
      -11   -1    0    0    0    0  0.00000000000E+00  0.00000000000E+00  0.50000000000E+03  0.50000000000E+03  0.00000000000E+00 0.  1.
       11   -1    0    0    0    0 -0.00000000000E+00 -0.00000000000E+00 -0.50000000000E+03  0.50000000000E+03  0.00000000000E+00 0. -1.
  1000024    1    1    2    0    0  0.30769132030E+03 -0.33391565602E+03  0.10621854045E+03  0.50000000000E+03  0.18039957800E+03 0.  1.
 -1000024    1    1    2    0    0 -0.30769132030E+03  0.33391565602E+03 -0.10621854045E+03  0.50000000000E+03  0.18039957800E+03 0. -1.
</event>
<event>
 4   0  0.7366543E-04  0.2236068E+02  0.7957747E-01  0.1516063E+00
      -11   -1    0    0    0    0  0.00000000000E+00  0.00000000000E+00  0.50000000000E+03  0.50000000000E+03  0.00000000000E+00 0.  1.
       11   -1    0    0    0    0 -0.00000000000E+00 -0.00000000000E+00 -0.50000000000E+03  0.50000000000E+03  0.00000000000E+00 0. -1.
  1000024    1    1    2    0    0  0.29734208584E+03  0.25072894510E+02  0.35835042376E+03  0.50000000000E+03  0.18039957800E+03 0. -1.
 -1000024    1    1    2    0    0 -0.29734208584E+03 -0.25072894510E+02 -0.35835042376E+03  0.50000000000E+03  0.18039957800E+03 0.  1.
</event>
<event>
 4   0  0.7366543E-04  0.2236068E+02  0.7957747E-01  0.1516063E+00
      -11   -1    0    0    0    0  0.00000000000E+00  0.00000000000E+00  0.50000000000E+03  0.50000000000E+03  0.00000000000E+00 0.  1.
       11   -1    0    0    0    0 -0.00000000000E+00 -0.00000000000E+00 -0.50000000000E+03  0.50000000000E+03  0.00000000000E+00 0. -1.
  1000024    1    1    2    0    0 -0.12326303588E+03 -0.34483884414E+02  0.44841172817E+03  0.50000000000E+03  0.18039957800E+03 0. -1.
 -1000024    1    1    2    0    0  0.12326303588E+03  0.34483884414E+02 -0.44841172817E+03  0.50000000000E+03  0.18039957800E+03 0. -1.
</event>
<event>
 4   0  0.1092222E-03  0.2236068E+02  0.7957747E-01  0.1516063E+00
      -11   -1    0    0    0    0  0.00000000000E+00  0.00000000000E+00  0.50000000000E+03  0.50000000000E+03  0.00000000000E+00 0.  1.
       11   -1    0    0    0    0 -0.00000000000E+00 -0.00000000000E+00 -0.50000000000E+03  0.50000000000E+03  0.00000000000E+00 0. -1.
  1000024    1    1    2    0    0 -0.14927764005E+03 -0.26123444491E+03  0.35627060394E+03  0.50000000000E+03  0.18039957800E+03 0.  1.
 -1000024    1    1    2    0    0  0.14927764005E+03  0.26123444491E+03 -0.35627060394E+03  0.50000000000E+03  0.18039957800E+03 0.  1.
</event>
<event>
 4   0  0.7366543E-04  0.2236068E+02  0.7957747E-01  0.1516063E+00
      -11   -1    0    0    0    0  0.00000000000E+00  0.00000000000E+00  0.50000000000E+03  0.50000000000E+03  0.00000000000E+00 0.  1.
       11   -1    0    0    0    0 -0.00000000000E+00 -0.00000000000E+00 -0.50000000000E+03  0.50000000000E+03  0.00000000000E+00 0. -1.
  1000024    1    1    2    0    0 -0.27166949686E+03  0.82866154151E+02  0.36984439597E+03  0.50000000000E+03  0.18039957800E+03 0. -1.
 -1000024    1    1    2    0    0  0.27166949686E+03 -0.82866154151E+02 -0.36984439597E+03  0.50000000000E+03  0.18039957800E+03 0.  1.
</event>
<event>
 4   0  0.1092222E-03  0.2236068E+02  0.7957747E-01  0.1516063E+00
      -11   -1    0    0    0    0  0.00000000000E+00  0.00000000000E+00  0.50000000000E+03  0.50000000000E+03  0.00000000000E+00 0.  1.
       11   -1    0    0    0    0 -0.00000000000E+00 -0.00000000000E+00 -0.50000000000E+03  0.50000000000E+03  0.00000000000E+00 0. -1.
  1000024    1    1    2    0    0 -0.37309392182E+03  0.26699923913E+03  0.83476488090E+02  0.50000000000E+03  0.18039957800E+03 0.  1.
 -1000024    1    1    2    0    0  0.37309392182E+03 -0.26699923913E+03 -0.83476488090E+02  0.50000000000E+03  0.18039957800E+03 0. -1.
</event>
<event>
 4   0  0.7366543E-04  0.2236068E+02  0.7957747E-01  0.1516063E+00
      -11   -1    0    0    0    0  0.00000000000E+00  0.00000000000E+00  0.50000000000E+03  0.50000000000E+03  0.00000000000E+00 0.  1.
       11   -1    0    0    0    0 -0.00000000000E+00 -0.00000000000E+00 -0.50000000000E+03  0.50000000000E+03  0.00000000000E+00 0. -1.
  1000024    1    1    2    0    0  0.27126499015E+03  0.37506068218E+03 -0.56575454557E+02  0.50000000000E+03  0.18039957800E+03 0. -1.
 -1000024    1    1    2    0    0 -0.27126499015E+03 -0.37506068218E+03  0.56575454557E+02  0.50000000000E+03  0.18039957800E+03 0.  1.
</event>
<event>
 4   0  0.7366543E-04  0.2236068E+02  0.7957747E-01  0.1516063E+00
      -11   -1    0    0    0    0  0.00000000000E+00  0.00000000000E+00  0.50000000000E+03  0.50000000000E+03  0.00000000000E+00 0.  1.
       11   -1    0    0    0    0 -0.00000000000E+00 -0.00000000000E+00 -0.50000000000E+03  0.50000000000E+03  0.00000000000E+00 0. -1.
  1000024    1    1    2    0    0 -0.24732683474E+03 -0.13521846285E+03  0.37148539188E+03  0.50000000000E+03  0.18039957800E+03 0. -1.
 -1000024    1    1    2    0    0  0.24732683474E+03  0.13521846285E+03 -0.37148539188E+03  0.50000000000E+03  0.18039957800E+03 0.  1.
</event>
<event>
 4   0  0.7366543E-04  0.2236068E+02  0.7957747E-01  0.1516063E+00
      -11   -1    0    0    0    0  0.00000000000E+00  0.00000000000E+00  0.50000000000E+03  0.50000000000E+03  0.00000000000E+00 0.  1.
       11   -1    0    0    0    0 -0.00000000000E+00 -0.00000000000E+00 -0.50000000000E+03  0.50000000000E+03  0.00000000000E+00 0. -1.
  1000024    1    1    2    0    0 -0.17377540301E+03 -0.21531529201E+03  0.37536305971E+03  0.50000000000E+03  0.18039957800E+03 0.  1.
 -1000024    1    1    2    0    0  0.17377540301E+03  0.21531529201E+03 -0.37536305971E+03  0.50000000000E+03  0.18039957800E+03 0. -1.
</event>
<event>
 4   0  0.7366543E-04  0.2236068E+02  0.7957747E-01  0.1516063E+00
      -11   -1    0    0    0    0  0.00000000000E+00  0.00000000000E+00  0.50000000000E+03  0.50000000000E+03  0.00000000000E+00 0.  1.
       11   -1    0    0    0    0 -0.00000000000E+00 -0.00000000000E+00 -0.50000000000E+03  0.50000000000E+03  0.00000000000E+00 0. -1.
  1000024    1    1    2    0    0 -0.19227886507E+03 -0.37858668548E+03 -0.19276138588E+03  0.50000000000E+03  0.18039957800E+03 0.  1.
 -1000024    1    1    2    0    0  0.19227886507E+03  0.37858668548E+03  0.19276138588E+03  0.50000000000E+03  0.18039957800E+03 0. -1.
</event>
<event>
 4   0  0.1092222E-03  0.2236068E+02  0.7957747E-01  0.1516063E+00
      -11   -1    0    0    0    0  0.00000000000E+00  0.00000000000E+00  0.50000000000E+03  0.50000000000E+03  0.00000000000E+00 0.  1.
       11   -1    0    0    0    0 -0.00000000000E+00 -0.00000000000E+00 -0.50000000000E+03  0.50000000000E+03  0.00000000000E+00 0. -1.
  1000024    1    1    2    0    0  0.37087457258E+03 -0.20180606578E+03  0.19794533460E+03  0.50000000000E+03  0.18039957800E+03 0. -1.
 -1000024    1    1    2    0    0 -0.37087457258E+03  0.20180606578E+03 -0.19794533460E+03  0.50000000000E+03  0.18039957800E+03 0.  1.
</event>
<event>
 4   0  0.6712789E-04  0.2236068E+02  0.7957747E-01  0.1516063E+00
      -11   -1    0    0    0    0  0.00000000000E+00  0.00000000000E+00  0.50000000000E+03  0.50000000000E+03  0.00000000000E+00 0.  1.
       11   -1    0    0    0    0 -0.00000000000E+00 -0.00000000000E+00 -0.50000000000E+03  0.50000000000E+03  0.00000000000E+00 0. -1.
  1000024    1    1    2    0    0 -0.33835479349E+03 -0.22019931574E+02 -0.32013614072E+03  0.50000000000E+03  0.18039957800E+03 0.  1.
 -1000024    1    1    2    0    0  0.33835479349E+03  0.22019931574E+02  0.32013614072E+03  0.50000000000E+03  0.18039957800E+03 0. -1.
</event>
<event>
 4   0  0.6712789E-04  0.2236068E+02  0.7957747E-01  0.1516063E+00
      -11   -1    0    0    0    0  0.00000000000E+00  0.00000000000E+00  0.50000000000E+03  0.50000000000E+03  0.00000000000E+00 0.  1.
       11   -1    0    0    0    0 -0.00000000000E+00 -0.00000000000E+00 -0.50000000000E+03  0.50000000000E+03  0.00000000000E+00 0. -1.
  1000024    1    1    2    0    0  0.34272610288E+03  0.55744441061E+02  0.31126735767E+03  0.50000000000E+03  0.18039957800E+03 0.  1.
 -1000024    1    1    2    0    0 -0.34272610288E+03 -0.55744441061E+02 -0.31126735767E+03  0.50000000000E+03  0.18039957800E+03 0. -1.
</event>
<event>
 4   0  0.1092222E-03  0.2236068E+02  0.7957747E-01  0.1516063E+00
      -11   -1    0    0    0    0  0.00000000000E+00  0.00000000000E+00  0.50000000000E+03  0.50000000000E+03  0.00000000000E+00 0.  1.
       11   -1    0    0    0    0 -0.00000000000E+00 -0.00000000000E+00 -0.50000000000E+03  0.50000000000E+03  0.00000000000E+00 0. -1.
  1000024    1    1    2    0    0  0.76875946225E+02 -0.37721669492E+03  0.26316087518E+03  0.50000000000E+03  0.18039957800E+03 0. -1.
 -1000024    1    1    2    0    0 -0.76875946225E+02  0.37721669492E+03 -0.26316087518E+03  0.50000000000E+03  0.18039957800E+03 0.  1.
</event>
<event>
 4   0  0.6712789E-04  0.2236068E+02  0.7957747E-01  0.1516063E+00
      -11   -1    0    0    0    0  0.00000000000E+00  0.00000000000E+00  0.50000000000E+03  0.50000000000E+03  0.00000000000E+00 0.  1.
       11   -1    0    0    0    0 -0.00000000000E+00 -0.00000000000E+00 -0.50000000000E+03  0.50000000000E+03  0.00000000000E+00 0. -1.
  1000024    1    1    2    0    0  0.45288628264E+03  0.43739376449E+02  0.10216102095E+03  0.50000000000E+03  0.18039957800E+03 0. -1.
 -1000024    1    1    2    0    0 -0.45288628264E+03 -0.43739376449E+02 -0.10216102095E+03  0.50000000000E+03  0.18039957800E+03 0.  1.
</event>
<event>
 4   0  0.7366543E-04  0.2236068E+02  0.7957747E-01  0.1516063E+00
      -11   -1    0    0    0    0  0.00000000000E+00  0.00000000000E+00  0.50000000000E+03  0.50000000000E+03  0.00000000000E+00 0.  1.
       11   -1    0    0    0    0 -0.00000000000E+00 -0.00000000000E+00 -0.50000000000E+03  0.50000000000E+03  0.00000000000E+00 0. -1.
  1000024    1    1    2    0    0 -0.19227531519E+03 -0.42117669371E+03  0.55645198366E+02  0.50000000000E+03  0.18039957800E+03 0. -1.
 -1000024    1    1    2    0    0  0.19227531519E+03  0.42117669371E+03 -0.55645198366E+02  0.50000000000E+03  0.18039957800E+03 0.  1.
</event>
<event>
 4   0  0.1092222E-03  0.2236068E+02  0.7957747E-01  0.1516063E+00
      -11   -1    0    0    0    0  0.00000000000E+00  0.00000000000E+00  0.50000000000E+03  0.50000000000E+03  0.00000000000E+00 0.  1.
       11   -1    0    0    0    0 -0.00000000000E+00 -0.00000000000E+00 -0.50000000000E+03  0.50000000000E+03  0.00000000000E+00 0. -1.
  1000024    1    1    2    0    0 -0.21887082632E+03 -0.26524288313E+03  0.31495676940E+03  0.50000000000E+03  0.18039957800E+03 0.  1.
 -1000024    1    1    2    0    0  0.21887082632E+03  0.26524288313E+03 -0.31495676940E+03  0.50000000000E+03  0.18039957800E+03 0. -1.
</event>
<event>
 4   0  0.6712789E-04  0.2236068E+02  0.7957747E-01  0.1516063E+00
      -11   -1    0    0    0    0  0.00000000000E+00  0.00000000000E+00  0.50000000000E+03  0.50000000000E+03  0.00000000000E+00 0.  1.
       11   -1    0    0    0    0 -0.00000000000E+00 -0.00000000000E+00 -0.50000000000E+03  0.50000000000E+03  0.00000000000E+00 0. -1.
  1000024    1    1    2    0    0  0.23526791040E+03 -0.39083660835E+03  0.96704437171E+02  0.50000000000E+03  0.18039957800E+03 0. -1.
 -1000024    1    1    2    0    0 -0.23526791040E+03  0.39083660835E+03 -0.96704437171E+02  0.50000000000E+03  0.18039957800E+03 0.  1.
</event>
<event>
 4   0  0.7366543E-04  0.2236068E+02  0.7957747E-01  0.1516063E+00
      -11   -1    0    0    0    0  0.00000000000E+00  0.00000000000E+00  0.50000000000E+03  0.50000000000E+03  0.00000000000E+00 0.  1.
       11   -1    0    0    0    0 -0.00000000000E+00 -0.00000000000E+00 -0.50000000000E+03  0.50000000000E+03  0.00000000000E+00 0. -1.
  1000024    1    1    2    0    0  0.18480298235E+03  0.32785271098E+02  0.42688285978E+03  0.50000000000E+03  0.18039957800E+03 0. -1.
 -1000024    1    1    2    0    0 -0.18480298235E+03 -0.32785271098E+02 -0.42688285978E+03  0.50000000000E+03  0.18039957800E+03 0. -1.
</event>
<event>
 4   0  0.1092222E-03  0.2236068E+02  0.7957747E-01  0.1516063E+00
      -11   -1    0    0    0    0  0.00000000000E+00  0.00000000000E+00  0.50000000000E+03  0.50000000000E+03  0.00000000000E+00 0.  1.
       11   -1    0    0    0    0 -0.00000000000E+00 -0.00000000000E+00 -0.50000000000E+03  0.50000000000E+03  0.00000000000E+00 0. -1.
  1000024    1    1    2    0    0 -0.40086474421E+03 -0.19422741644E+03  0.13798246195E+03  0.50000000000E+03  0.18039957800E+03 0.  1.
 -1000024    1    1    2    0    0  0.40086474421E+03  0.19422741644E+03 -0.13798246195E+03  0.50000000000E+03  0.18039957800E+03 0. -1.
</event>
<event>
 4   0  0.7366543E-04  0.2236068E+02  0.7957747E-01  0.1516063E+00
      -11   -1    0    0    0    0  0.00000000000E+00  0.00000000000E+00  0.50000000000E+03  0.50000000000E+03  0.00000000000E+00 0.  1.
       11   -1    0    0    0    0 -0.00000000000E+00 -0.00000000000E+00 -0.50000000000E+03  0.50000000000E+03  0.00000000000E+00 0. -1.
  1000024    1    1    2    0    0  0.43963198927E+03  0.19771159549E+02  0.15423620690E+03  0.50000000000E+03  0.18039957800E+03 0.  1.
 -1000024    1    1    2    0    0 -0.43963198927E+03 -0.19771159549E+02 -0.15423620690E+03  0.50000000000E+03  0.18039957800E+03 0. -1.
</event>
<event>
 4   0  0.6712789E-04  0.2236068E+02  0.7957747E-01  0.1516063E+00
      -11   -1    0    0    0    0  0.00000000000E+00  0.00000000000E+00  0.50000000000E+03  0.50000000000E+03  0.00000000000E+00 0.  1.
       11   -1    0    0    0    0 -0.00000000000E+00 -0.00000000000E+00 -0.50000000000E+03  0.50000000000E+03  0.00000000000E+00 0. -1.
  1000024    1    1    2    0    0 -0.43650471199E+02  0.36141192896E+03  0.29143103168E+03  0.50000000000E+03  0.18039957800E+03 0. -1.
 -1000024    1    1    2    0    0  0.43650471199E+02 -0.36141192896E+03 -0.29143103168E+03  0.50000000000E+03  0.18039957800E+03 0.  1.
</event>
<event>
 4   0  0.1092222E-03  0.2236068E+02  0.7957747E-01  0.1516063E+00
      -11   -1    0    0    0    0  0.00000000000E+00  0.00000000000E+00  0.50000000000E+03  0.50000000000E+03  0.00000000000E+00 0.  1.
       11   -1    0    0    0    0 -0.00000000000E+00 -0.00000000000E+00 -0.50000000000E+03  0.50000000000E+03  0.00000000000E+00 0. -1.
  1000024    1    1    2    0    0  0.42622166209E+03  0.18401904418E+03  0.43909889540E+02  0.50000000000E+03  0.18039957800E+03 0.  1.
 -1000024    1    1    2    0    0 -0.42622166209E+03 -0.18401904418E+03 -0.43909889540E+02  0.50000000000E+03  0.18039957800E+03 0. -1.
</event>
<event>
 4   0  0.6712789E-04  0.2236068E+02  0.7957747E-01  0.1516063E+00
      -11   -1    0    0    0    0  0.00000000000E+00  0.00000000000E+00  0.50000000000E+03  0.50000000000E+03  0.00000000000E+00 0.  1.
       11   -1    0    0    0    0 -0.00000000000E+00 -0.00000000000E+00 -0.50000000000E+03  0.50000000000E+03  0.00000000000E+00 0. -1.
  1000024    1    1    2    0    0 -0.43927237459E+03 -0.10310805643E+03  0.11774761941E+03  0.50000000000E+03  0.18039957800E+03 0. -1.
 -1000024    1    1    2    0    0  0.43927237459E+03  0.10310805643E+03 -0.11774761941E+03  0.50000000000E+03  0.18039957800E+03 0.  1.
</event>
<event>
 4   0  0.7366543E-04  0.2236068E+02  0.7957747E-01  0.1516063E+00
      -11   -1    0    0    0    0  0.00000000000E+00  0.00000000000E+00  0.50000000000E+03  0.50000000000E+03  0.00000000000E+00 0.  1.
       11   -1    0    0    0    0 -0.00000000000E+00 -0.00000000000E+00 -0.50000000000E+03  0.50000000000E+03  0.00000000000E+00 0. -1.
  1000024    1    1    2    0    0  0.45039070777E+03  0.47294657757E+02 -0.11120889333E+03  0.50000000000E+03  0.18039957800E+03 0. -1.
 -1000024    1    1    2    0    0 -0.45039070777E+03 -0.47294657757E+02  0.11120889333E+03  0.50000000000E+03  0.18039957800E+03 0.  1.
</event>
<event>
 4   0  0.6712789E-04  0.2236068E+02  0.7957747E-01  0.1516063E+00
      -11   -1    0    0    0    0  0.00000000000E+00  0.00000000000E+00  0.50000000000E+03  0.50000000000E+03  0.00000000000E+00 0.  1.
       11   -1    0    0    0    0 -0.00000000000E+00 -0.00000000000E+00 -0.50000000000E+03  0.50000000000E+03  0.00000000000E+00 0. -1.
  1000024    1    1    2    0    0 -0.20034415929E+02 -0.14273709278E+03  0.44348701986E+03  0.50000000000E+03  0.18039957800E+03 0.  1.
 -1000024    1    1    2    0    0  0.20034415929E+02  0.14273709278E+03 -0.44348701986E+03  0.50000000000E+03  0.18039957800E+03 0.  1.
</event>
<event>
 4   0  0.1092222E-03  0.2236068E+02  0.7957747E-01  0.1516063E+00
      -11   -1    0    0    0    0  0.00000000000E+00  0.00000000000E+00  0.50000000000E+03  0.50000000000E+03  0.00000000000E+00 0.  1.
       11   -1    0    0    0    0 -0.00000000000E+00 -0.00000000000E+00 -0.50000000000E+03  0.50000000000E+03  0.00000000000E+00 0. -1.
  1000024    1    1    2    0    0  0.28641571113E+03  0.69270872506E+02  0.36141884137E+03  0.50000000000E+03  0.18039957800E+03 0.  1.
 -1000024    1    1    2    0    0 -0.28641571113E+03 -0.69270872506E+02 -0.36141884137E+03  0.50000000000E+03  0.18039957800E+03 0. -1.
</event>
<event>
 4   0  0.1092222E-03  0.2236068E+02  0.7957747E-01  0.1516063E+00
      -11   -1    0    0    0    0  0.00000000000E+00  0.00000000000E+00  0.50000000000E+03  0.50000000000E+03  0.00000000000E+00 0.  1.
       11   -1    0    0    0    0 -0.00000000000E+00 -0.00000000000E+00 -0.50000000000E+03  0.50000000000E+03  0.00000000000E+00 0. -1.
  1000024    1    1    2    0    0  0.45342275110E+03  0.10603360711E+03  0.24913354015E+02  0.50000000000E+03  0.18039957800E+03 0. -1.
 -1000024    1    1    2    0    0 -0.45342275110E+03 -0.10603360711E+03 -0.24913354015E+02  0.50000000000E+03  0.18039957800E+03 0.  1.
</event>
<event>
 4   0  0.6712789E-04  0.2236068E+02  0.7957747E-01  0.1516063E+00
      -11   -1    0    0    0    0  0.00000000000E+00  0.00000000000E+00  0.50000000000E+03  0.50000000000E+03  0.00000000000E+00 0.  1.
       11   -1    0    0    0    0 -0.00000000000E+00 -0.00000000000E+00 -0.50000000000E+03  0.50000000000E+03  0.00000000000E+00 0. -1.
  1000024    1    1    2    0    0 -0.71984972391E+01  0.30860416607E+03  0.34952488120E+03  0.50000000000E+03  0.18039957800E+03 0.  1.
 -1000024    1    1    2    0    0  0.71984972391E+01 -0.30860416607E+03 -0.34952488120E+03  0.50000000000E+03  0.18039957800E+03 0. -1.
</event>
<event>
 4   0  0.6712789E-04  0.2236068E+02  0.7957747E-01  0.1516063E+00
      -11   -1    0    0    0    0  0.00000000000E+00  0.00000000000E+00  0.50000000000E+03  0.50000000000E+03  0.00000000000E+00 0.  1.
       11   -1    0    0    0    0 -0.00000000000E+00 -0.00000000000E+00 -0.50000000000E+03  0.50000000000E+03  0.00000000000E+00 0. -1.
  1000024    1    1    2    0    0  0.42863127675E+03  0.49604584358E+02  0.17683496842E+03  0.50000000000E+03  0.18039957800E+03 0. -1.
 -1000024    1    1    2    0    0 -0.42863127675E+03 -0.49604584358E+02 -0.17683496842E+03  0.50000000000E+03  0.18039957800E+03 0.  1.
</event>
<event>
 4   0  0.1092222E-03  0.2236068E+02  0.7957747E-01  0.1516063E+00
      -11   -1    0    0    0    0  0.00000000000E+00  0.00000000000E+00  0.50000000000E+03  0.50000000000E+03  0.00000000000E+00 0.  1.
       11   -1    0    0    0    0 -0.00000000000E+00 -0.00000000000E+00 -0.50000000000E+03  0.50000000000E+03  0.00000000000E+00 0. -1.
  1000024    1    1    2    0    0  0.42390729234E+02 -0.28518526626E+03  0.36650836585E+03  0.50000000000E+03  0.18039957800E+03 0. -1.
 -1000024    1    1    2    0    0 -0.42390729234E+02  0.28518526626E+03 -0.36650836585E+03  0.50000000000E+03  0.18039957800E+03 0.  1.
</event>
<event>
 4   0  0.6712789E-04  0.2236068E+02  0.7957747E-01  0.1516063E+00
      -11   -1    0    0    0    0  0.00000000000E+00  0.00000000000E+00  0.50000000000E+03  0.50000000000E+03  0.00000000000E+00 0.  1.
       11   -1    0    0    0    0 -0.00000000000E+00 -0.00000000000E+00 -0.50000000000E+03  0.50000000000E+03  0.00000000000E+00 0. -1.
  1000024    1    1    2    0    0 -0.50883965311E+02  0.20559110700E+03  0.41545049170E+03  0.50000000000E+03  0.18039957800E+03 0.  1.
 -1000024    1    1    2    0    0  0.50883965311E+02 -0.20559110700E+03 -0.41545049170E+03  0.50000000000E+03  0.18039957800E+03 0. -1.
</event>
<event>
 4   0  0.1092222E-03  0.2236068E+02  0.7957747E-01  0.1516063E+00
      -11   -1    0    0    0    0  0.00000000000E+00  0.00000000000E+00  0.50000000000E+03  0.50000000000E+03  0.00000000000E+00 0.  1.
       11   -1    0    0    0    0 -0.00000000000E+00 -0.00000000000E+00 -0.50000000000E+03  0.50000000000E+03  0.00000000000E+00 0. -1.
  1000024    1    1    2    0    0 -0.43659849771E+03 -0.50385439471E+01  0.16374479267E+03  0.50000000000E+03  0.18039957800E+03 0.  1.
 -1000024    1    1    2    0    0  0.43659849771E+03  0.50385439471E+01 -0.16374479267E+03  0.50000000000E+03  0.18039957800E+03 0. -1.
</event>
<event>
 4   0  0.7366543E-04  0.2236068E+02  0.7957747E-01  0.1516063E+00
      -11   -1    0    0    0    0  0.00000000000E+00  0.00000000000E+00  0.50000000000E+03  0.50000000000E+03  0.00000000000E+00 0.  1.
       11   -1    0    0    0    0 -0.00000000000E+00 -0.00000000000E+00 -0.50000000000E+03  0.50000000000E+03  0.00000000000E+00 0. -1.
  1000024    1    1    2    0    0 -0.28230867591E+03  0.10849718008E+03  0.35494529956E+03  0.50000000000E+03  0.18039957800E+03 0.  1.
 -1000024    1    1    2    0    0  0.28230867591E+03 -0.10849718008E+03 -0.35494529956E+03  0.50000000000E+03  0.18039957800E+03 0. -1.
</event>
<event>
 4   0  0.1092222E-03  0.2236068E+02  0.7957747E-01  0.1516063E+00
      -11   -1    0    0    0    0  0.00000000000E+00  0.00000000000E+00  0.50000000000E+03  0.50000000000E+03  0.00000000000E+00 0.  1.
       11   -1    0    0    0    0 -0.00000000000E+00 -0.00000000000E+00 -0.50000000000E+03  0.50000000000E+03  0.00000000000E+00 0. -1.
  1000024    1    1    2    0    0 -0.12686659007E+01  0.43379800580E+03  0.17109550814E+03  0.50000000000E+03  0.18039957800E+03 0. -1.
 -1000024    1    1    2    0    0  0.12686659007E+01 -0.43379800580E+03 -0.17109550814E+03  0.50000000000E+03  0.18039957800E+03 0.  1.
</event>
<event>
 4   0  0.1092222E-03  0.2236068E+02  0.7957747E-01  0.1516063E+00
      -11   -1    0    0    0    0  0.00000000000E+00  0.00000000000E+00  0.50000000000E+03  0.50000000000E+03  0.00000000000E+00 0.  1.
       11   -1    0    0    0    0 -0.00000000000E+00 -0.00000000000E+00 -0.50000000000E+03  0.50000000000E+03  0.00000000000E+00 0. -1.
  1000024    1    1    2    0    0 -0.34553599768E+03 -0.27116665729E+03  0.15661899802E+03  0.50000000000E+03  0.18039957800E+03 0. -1.
 -1000024    1    1    2    0    0  0.34553599768E+03  0.27116665729E+03 -0.15661899802E+03  0.50000000000E+03  0.18039957800E+03 0.  1.
</event>
<event>
 4   0  0.1092222E-03  0.2236068E+02  0.7957747E-01  0.1516063E+00
      -11   -1    0    0    0    0  0.00000000000E+00  0.00000000000E+00  0.50000000000E+03  0.50000000000E+03  0.00000000000E+00 0.  1.
       11   -1    0    0    0    0 -0.00000000000E+00 -0.00000000000E+00 -0.50000000000E+03  0.50000000000E+03  0.00000000000E+00 0. -1.
  1000024    1    1    2    0    0 -0.28772919876E+02  0.46480777881E+03 -0.24121361783E+02  0.50000000000E+03  0.18039957800E+03 0. -1.
 -1000024    1    1    2    0    0  0.28772919876E+02 -0.46480777881E+03  0.24121361783E+02  0.50000000000E+03  0.18039957800E+03 0.  1.
</event>
<event>
 4   0  0.1092222E-03  0.2236068E+02  0.7957747E-01  0.1516063E+00
      -11   -1    0    0    0    0  0.00000000000E+00  0.00000000000E+00  0.50000000000E+03  0.50000000000E+03  0.00000000000E+00 0.  1.
       11   -1    0    0    0    0 -0.00000000000E+00 -0.00000000000E+00 -0.50000000000E+03  0.50000000000E+03  0.00000000000E+00 0. -1.
  1000024    1    1    2    0    0  0.93071814561E+02 -0.37459582914E+03  0.26167077480E+03  0.50000000000E+03  0.18039957800E+03 0. -1.
 -1000024    1    1    2    0    0 -0.93071814561E+02  0.37459582914E+03 -0.26167077480E+03  0.50000000000E+03  0.18039957800E+03 0.  1.
</event>
<event>
 4   0  0.1092222E-03  0.2236068E+02  0.7957747E-01  0.1516063E+00
      -11   -1    0    0    0    0  0.00000000000E+00  0.00000000000E+00  0.50000000000E+03  0.50000000000E+03  0.00000000000E+00 0.  1.
       11   -1    0    0    0    0 -0.00000000000E+00 -0.00000000000E+00 -0.50000000000E+03  0.50000000000E+03  0.00000000000E+00 0. -1.
  1000024    1    1    2    0    0  0.42965361023E+03 -0.13190042300E+03  0.12432234669E+03  0.50000000000E+03  0.18039957800E+03 0. -1.
 -1000024    1    1    2    0    0 -0.42965361023E+03  0.13190042300E+03 -0.12432234669E+03  0.50000000000E+03  0.18039957800E+03 0.  1.
</event>
<event>
 4   0  0.1092222E-03  0.2236068E+02  0.7957747E-01  0.1516063E+00
      -11   -1    0    0    0    0  0.00000000000E+00  0.00000000000E+00  0.50000000000E+03  0.50000000000E+03  0.00000000000E+00 0.  1.
       11   -1    0    0    0    0 -0.00000000000E+00 -0.00000000000E+00 -0.50000000000E+03  0.50000000000E+03  0.00000000000E+00 0. -1.
  1000024    1    1    2    0    0 -0.38523850672E+03  0.17795850045E+03  0.19333405627E+03  0.50000000000E+03  0.18039957800E+03 0.  1.
 -1000024    1    1    2    0    0  0.38523850672E+03 -0.17795850045E+03 -0.19333405627E+03  0.50000000000E+03  0.18039957800E+03 0. -1.
</event>
<event>
 4   0  0.1092222E-03  0.2236068E+02  0.7957747E-01  0.1516063E+00
      -11   -1    0    0    0    0  0.00000000000E+00  0.00000000000E+00  0.50000000000E+03  0.50000000000E+03  0.00000000000E+00 0.  1.
       11   -1    0    0    0    0 -0.00000000000E+00 -0.00000000000E+00 -0.50000000000E+03  0.50000000000E+03  0.00000000000E+00 0. -1.
  1000024    1    1    2    0    0  0.87146698037E+02 -0.31051229329E+03  0.33681383729E+03  0.50000000000E+03  0.18039957800E+03 0. -1.
 -1000024    1    1    2    0    0 -0.87146698037E+02  0.31051229329E+03 -0.33681383729E+03  0.50000000000E+03  0.18039957800E+03 0.  1.
</event>
<event>
 4   0  0.6712789E-04  0.2236068E+02  0.7957747E-01  0.1516063E+00
      -11   -1    0    0    0    0  0.00000000000E+00  0.00000000000E+00  0.50000000000E+03  0.50000000000E+03  0.00000000000E+00 0.  1.
       11   -1    0    0    0    0 -0.00000000000E+00 -0.00000000000E+00 -0.50000000000E+03  0.50000000000E+03  0.00000000000E+00 0. -1.
  1000024    1    1    2    0    0 -0.31314445747E+03 -0.74818064497E+01  0.34545703581E+03  0.50000000000E+03  0.18039957800E+03 0.  1.
 -1000024    1    1    2    0    0  0.31314445747E+03  0.74818064497E+01 -0.34545703581E+03  0.50000000000E+03  0.18039957800E+03 0. -1.
</event>
<event>
 4   0  0.1092222E-03  0.2236068E+02  0.7957747E-01  0.1516063E+00
      -11   -1    0    0    0    0  0.00000000000E+00  0.00000000000E+00  0.50000000000E+03  0.50000000000E+03  0.00000000000E+00 0.  1.
       11   -1    0    0    0    0 -0.00000000000E+00 -0.00000000000E+00 -0.50000000000E+03  0.50000000000E+03  0.00000000000E+00 0. -1.
  1000024    1    1    2    0    0 -0.16692471605E+03  0.40792635877E+03  0.15227677842E+03  0.50000000000E+03  0.18039957800E+03 0.  1.
 -1000024    1    1    2    0    0  0.16692471605E+03 -0.40792635877E+03 -0.15227677842E+03  0.50000000000E+03  0.18039957800E+03 0. -1.
</event>
<event>
 4   0  0.1092222E-03  0.2236068E+02  0.7957747E-01  0.1516063E+00
      -11   -1    0    0    0    0  0.00000000000E+00  0.00000000000E+00  0.50000000000E+03  0.50000000000E+03  0.00000000000E+00 0.  1.
       11   -1    0    0    0    0 -0.00000000000E+00 -0.00000000000E+00 -0.50000000000E+03  0.50000000000E+03  0.00000000000E+00 0. -1.
  1000024    1    1    2    0    0  0.24425245047E+03 -0.27179954641E+03  0.28969249087E+03  0.50000000000E+03  0.18039957800E+03 0.  1.
 -1000024    1    1    2    0    0 -0.24425245047E+03  0.27179954641E+03 -0.28969249087E+03  0.50000000000E+03  0.18039957800E+03 0. -1.
</event>
<event>
 4   0  0.1092222E-03  0.2236068E+02  0.7957747E-01  0.1516063E+00
      -11   -1    0    0    0    0  0.00000000000E+00  0.00000000000E+00  0.50000000000E+03  0.50000000000E+03  0.00000000000E+00 0.  1.
       11   -1    0    0    0    0 -0.00000000000E+00 -0.00000000000E+00 -0.50000000000E+03  0.50000000000E+03  0.00000000000E+00 0. -1.
  1000024    1    1    2    0    0 -0.16048245646E+03  0.43447645001E+03 -0.54144139246E+02  0.50000000000E+03  0.18039957800E+03 0. -1.
 -1000024    1    1    2    0    0  0.16048245646E+03 -0.43447645001E+03  0.54144139246E+02  0.50000000000E+03  0.18039957800E+03 0.  1.
</event>
<event>
 4   0  0.6712789E-04  0.2236068E+02  0.7957747E-01  0.1516063E+00
      -11   -1    0    0    0    0  0.00000000000E+00  0.00000000000E+00  0.50000000000E+03  0.50000000000E+03  0.00000000000E+00 0.  1.
       11   -1    0    0    0    0 -0.00000000000E+00 -0.00000000000E+00 -0.50000000000E+03  0.50000000000E+03  0.00000000000E+00 0. -1.
  1000024    1    1    2    0    0 -0.44556625399E+03 -0.10556582531E+03  0.88218830683E+02  0.50000000000E+03  0.18039957800E+03 0. -1.
 -1000024    1    1    2    0    0  0.44556625399E+03  0.10556582531E+03 -0.88218830683E+02  0.50000000000E+03  0.18039957800E+03 0.  1.
</event>
<event>
 4   0  0.6712789E-04  0.2236068E+02  0.7957747E-01  0.1516063E+00
      -11   -1    0    0    0    0  0.00000000000E+00  0.00000000000E+00  0.50000000000E+03  0.50000000000E+03  0.00000000000E+00 0.  1.
       11   -1    0    0    0    0 -0.00000000000E+00 -0.00000000000E+00 -0.50000000000E+03  0.50000000000E+03  0.00000000000E+00 0. -1.
  1000024    1    1    2    0    0  0.31161641095E+03  0.22060204802E+03  0.26774230352E+03  0.50000000000E+03  0.18039957800E+03 0.  1.
 -1000024    1    1    2    0    0 -0.31161641095E+03 -0.22060204802E+03 -0.26774230352E+03  0.50000000000E+03  0.18039957800E+03 0. -1.
</event>
<event>
 4   0  0.7366543E-04  0.2236068E+02  0.7957747E-01  0.1516063E+00
      -11   -1    0    0    0    0  0.00000000000E+00  0.00000000000E+00  0.50000000000E+03  0.50000000000E+03  0.00000000000E+00 0.  1.
       11   -1    0    0    0    0 -0.00000000000E+00 -0.00000000000E+00 -0.50000000000E+03  0.50000000000E+03  0.00000000000E+00 0. -1.
  1000024    1    1    2    0    0 -0.35617410057E+03 -0.76697057396E+02  0.29105594604E+03  0.50000000000E+03  0.18039957800E+03 0.  1.
 -1000024    1    1    2    0    0  0.35617410057E+03  0.76697057396E+02 -0.29105594604E+03  0.50000000000E+03  0.18039957800E+03 0. -1.
</event>
<event>
 4   0  0.1092222E-03  0.2236068E+02  0.7957747E-01  0.1516063E+00
      -11   -1    0    0    0    0  0.00000000000E+00  0.00000000000E+00  0.50000000000E+03  0.50000000000E+03  0.00000000000E+00 0.  1.
       11   -1    0    0    0    0 -0.00000000000E+00 -0.00000000000E+00 -0.50000000000E+03  0.50000000000E+03  0.00000000000E+00 0. -1.
  1000024    1    1    2    0    0  0.20477870230E+03  0.22648784222E+03  0.35245557545E+03  0.50000000000E+03  0.18039957800E+03 0. -1.
 -1000024    1    1    2    0    0 -0.20477870230E+03 -0.22648784222E+03 -0.35245557545E+03  0.50000000000E+03  0.18039957800E+03 0.  1.
</event>
<event>
 4   0  0.7366543E-04  0.2236068E+02  0.7957747E-01  0.1516063E+00
      -11   -1    0    0    0    0  0.00000000000E+00  0.00000000000E+00  0.50000000000E+03  0.50000000000E+03  0.00000000000E+00 0.  1.
       11   -1    0    0    0    0 -0.00000000000E+00 -0.00000000000E+00 -0.50000000000E+03  0.50000000000E+03  0.00000000000E+00 0. -1.
  1000024    1    1    2    0    0 -0.54602200609E+02 -0.46236102678E+03 -0.26398349511E+02  0.50000000000E+03  0.18039957800E+03 0.  1.
 -1000024    1    1    2    0    0  0.54602200609E+02  0.46236102678E+03  0.26398349511E+02  0.50000000000E+03  0.18039957800E+03 0. -1.
</event>
<event>
 4   0  0.1092222E-03  0.2236068E+02  0.7957747E-01  0.1516063E+00
      -11   -1    0    0    0    0  0.00000000000E+00  0.00000000000E+00  0.50000000000E+03  0.50000000000E+03  0.00000000000E+00 0.  1.
       11   -1    0    0    0    0 -0.00000000000E+00 -0.00000000000E+00 -0.50000000000E+03  0.50000000000E+03  0.00000000000E+00 0. -1.
  1000024    1    1    2    0    0  0.34599898396E+03 -0.23924572977E+03  0.20125152457E+03  0.50000000000E+03  0.18039957800E+03 0. -1.
 -1000024    1    1    2    0    0 -0.34599898396E+03  0.23924572977E+03 -0.20125152457E+03  0.50000000000E+03  0.18039957800E+03 0.  1.
</event>
<event>
 4   0  0.6712789E-04  0.2236068E+02  0.7957747E-01  0.1516063E+00
      -11   -1    0    0    0    0  0.00000000000E+00  0.00000000000E+00  0.50000000000E+03  0.50000000000E+03  0.00000000000E+00 0.  1.
       11   -1    0    0    0    0 -0.00000000000E+00 -0.00000000000E+00 -0.50000000000E+03  0.50000000000E+03  0.00000000000E+00 0. -1.
  1000024    1    1    2    0    0 -0.10989433769E+01 -0.45617226128E+03  0.96755633522E+02  0.50000000000E+03  0.18039957800E+03 0. -1.
 -1000024    1    1    2    0    0  0.10989433769E+01  0.45617226128E+03 -0.96755633522E+02  0.50000000000E+03  0.18039957800E+03 0.  1.
</event>
<event>
 4   0  0.1092222E-03  0.2236068E+02  0.7957747E-01  0.1516063E+00
      -11   -1    0    0    0    0  0.00000000000E+00  0.00000000000E+00  0.50000000000E+03  0.50000000000E+03  0.00000000000E+00 0.  1.
       11   -1    0    0    0    0 -0.00000000000E+00 -0.00000000000E+00 -0.50000000000E+03  0.50000000000E+03  0.00000000000E+00 0. -1.
  1000024    1    1    2    0    0 -0.29338593191E+03  0.34807379407E+03  0.10112032981E+03  0.50000000000E+03  0.18039957800E+03 0. -1.
 -1000024    1    1    2    0    0  0.29338593191E+03 -0.34807379407E+03 -0.10112032981E+03  0.50000000000E+03  0.18039957800E+03 0.  1.
</event>
<event>
 4   0  0.1092222E-03  0.2236068E+02  0.7957747E-01  0.1516063E+00
      -11   -1    0    0    0    0  0.00000000000E+00  0.00000000000E+00  0.50000000000E+03  0.50000000000E+03  0.00000000000E+00 0.  1.
       11   -1    0    0    0    0 -0.00000000000E+00 -0.00000000000E+00 -0.50000000000E+03  0.50000000000E+03  0.00000000000E+00 0. -1.
  1000024    1    1    2    0    0  0.25920280781E+03  0.24987455468E+03  0.29636565861E+03  0.50000000000E+03  0.18039957800E+03 0.  1.
 -1000024    1    1    2    0    0 -0.25920280781E+03 -0.24987455468E+03 -0.29636565861E+03  0.50000000000E+03  0.18039957800E+03 0. -1.
</event>
<event>
 4   0  0.1092222E-03  0.2236068E+02  0.7957747E-01  0.1516063E+00
      -11   -1    0    0    0    0  0.00000000000E+00  0.00000000000E+00  0.50000000000E+03  0.50000000000E+03  0.00000000000E+00 0.  1.
       11   -1    0    0    0    0 -0.00000000000E+00 -0.00000000000E+00 -0.50000000000E+03  0.50000000000E+03  0.00000000000E+00 0. -1.
  1000024    1    1    2    0    0  0.12198366922E+03 -0.14700198372E+03  0.42540144979E+03  0.50000000000E+03  0.18039957800E+03 0. -1.
 -1000024    1    1    2    0    0 -0.12198366922E+03  0.14700198372E+03 -0.42540144979E+03  0.50000000000E+03  0.18039957800E+03 0. -1.
</event>
<event>
 4   0  0.6712789E-04  0.2236068E+02  0.7957747E-01  0.1516063E+00
      -11   -1    0    0    0    0  0.00000000000E+00  0.00000000000E+00  0.50000000000E+03  0.50000000000E+03  0.00000000000E+00 0.  1.
       11   -1    0    0    0    0 -0.00000000000E+00 -0.00000000000E+00 -0.50000000000E+03  0.50000000000E+03  0.00000000000E+00 0. -1.
  1000024    1    1    2    0    0  0.10587432238E+03  0.42845464491E+03 -0.15057635063E+03  0.50000000000E+03  0.18039957800E+03 0.  1.
 -1000024    1    1    2    0    0 -0.10587432238E+03 -0.42845464491E+03  0.15057635063E+03  0.50000000000E+03  0.18039957800E+03 0. -1.
</event>
<event>
 4   0  0.1092222E-03  0.2236068E+02  0.7957747E-01  0.1516063E+00
      -11   -1    0    0    0    0  0.00000000000E+00  0.00000000000E+00  0.50000000000E+03  0.50000000000E+03  0.00000000000E+00 0.  1.
       11   -1    0    0    0    0 -0.00000000000E+00 -0.00000000000E+00 -0.50000000000E+03  0.50000000000E+03  0.00000000000E+00 0. -1.
  1000024    1    1    2    0    0 -0.38149971976E+03  0.26342227739E+03 -0.50226087416E+02  0.50000000000E+03  0.18039957800E+03 0.  1.
 -1000024    1    1    2    0    0  0.38149971976E+03 -0.26342227739E+03  0.50226087416E+02  0.50000000000E+03  0.18039957800E+03 0. -1.
</event>
<event>
 4   0  0.6712789E-04  0.2236068E+02  0.7957747E-01  0.1516063E+00
      -11   -1    0    0    0    0  0.00000000000E+00  0.00000000000E+00  0.50000000000E+03  0.50000000000E+03  0.00000000000E+00 0.  1.
       11   -1    0    0    0    0 -0.00000000000E+00 -0.00000000000E+00 -0.50000000000E+03  0.50000000000E+03  0.00000000000E+00 0. -1.
  1000024    1    1    2    0    0  0.57313808815E+01  0.46331146220E+03  0.52589281466E+02  0.50000000000E+03  0.18039957800E+03 0. -1.
 -1000024    1    1    2    0    0 -0.57313808815E+01 -0.46331146220E+03 -0.52589281466E+02  0.50000000000E+03  0.18039957800E+03 0.  1.
</event>
<event>
 4   0  0.1092222E-03  0.2236068E+02  0.7957747E-01  0.1516063E+00
      -11   -1    0    0    0    0  0.00000000000E+00  0.00000000000E+00  0.50000000000E+03  0.50000000000E+03  0.00000000000E+00 0.  1.
       11   -1    0    0    0    0 -0.00000000000E+00 -0.00000000000E+00 -0.50000000000E+03  0.50000000000E+03  0.00000000000E+00 0. -1.
  1000024    1    1    2    0    0 -0.38003723774E+03 -0.15686544478E+03  0.22004754583E+03  0.50000000000E+03  0.18039957800E+03 0.  1.
 -1000024    1    1    2    0    0  0.38003723774E+03  0.15686544478E+03 -0.22004754583E+03  0.50000000000E+03  0.18039957800E+03 0. -1.
</event>
<event>
 4   0  0.7366543E-04  0.2236068E+02  0.7957747E-01  0.1516063E+00
      -11   -1    0    0    0    0  0.00000000000E+00  0.00000000000E+00  0.50000000000E+03  0.50000000000E+03  0.00000000000E+00 0.  1.
       11   -1    0    0    0    0 -0.00000000000E+00 -0.00000000000E+00 -0.50000000000E+03  0.50000000000E+03  0.00000000000E+00 0. -1.
  1000024    1    1    2    0    0 -0.42089323820E+03 -0.17811846594E+03 -0.92621198387E+02  0.50000000000E+03  0.18039957800E+03 0. -1.
 -1000024    1    1    2    0    0  0.42089323820E+03  0.17811846594E+03  0.92621198387E+02  0.50000000000E+03  0.18039957800E+03 0.  1.
</event>
<event>
 4   0  0.7366543E-04  0.2236068E+02  0.7957747E-01  0.1516063E+00
      -11   -1    0    0    0    0  0.00000000000E+00  0.00000000000E+00  0.50000000000E+03  0.50000000000E+03  0.00000000000E+00 0.  1.
       11   -1    0    0    0    0 -0.00000000000E+00 -0.00000000000E+00 -0.50000000000E+03  0.50000000000E+03  0.00000000000E+00 0. -1.
  1000024    1    1    2    0    0 -0.43644892051E+03  0.91686549996E+02  0.13624209552E+03  0.50000000000E+03  0.18039957800E+03 0.  1.
 -1000024    1    1    2    0    0  0.43644892051E+03 -0.91686549996E+02 -0.13624209552E+03  0.50000000000E+03  0.18039957800E+03 0. -1.
</event>
<event>
 4   0  0.1092222E-03  0.2236068E+02  0.7957747E-01  0.1516063E+00
      -11   -1    0    0    0    0  0.00000000000E+00  0.00000000000E+00  0.50000000000E+03  0.50000000000E+03  0.00000000000E+00 0.  1.
       11   -1    0    0    0    0 -0.00000000000E+00 -0.00000000000E+00 -0.50000000000E+03  0.50000000000E+03  0.00000000000E+00 0. -1.
  1000024    1    1    2    0    0 -0.23320685155E+03  0.40791644545E+02  0.40175440058E+03  0.50000000000E+03  0.18039957800E+03 0.  1.
 -1000024    1    1    2    0    0  0.23320685155E+03 -0.40791644545E+02 -0.40175440058E+03  0.50000000000E+03  0.18039957800E+03 0. -1.
</event>
<event>
 4   0  0.1092222E-03  0.2236068E+02  0.7957747E-01  0.1516063E+00
      -11   -1    0    0    0    0  0.00000000000E+00  0.00000000000E+00  0.50000000000E+03  0.50000000000E+03  0.00000000000E+00 0.  1.
       11   -1    0    0    0    0 -0.00000000000E+00 -0.00000000000E+00 -0.50000000000E+03  0.50000000000E+03  0.00000000000E+00 0. -1.
  1000024    1    1    2    0    0  0.35687509965E+03  0.29719842924E+03  0.42062443629E+02  0.50000000000E+03  0.18039957800E+03 0.  1.
 -1000024    1    1    2    0    0 -0.35687509965E+03 -0.29719842924E+03 -0.42062443629E+02  0.50000000000E+03  0.18039957800E+03 0. -1.
</event>
<event>
 4   0  0.7366543E-04  0.2236068E+02  0.7957747E-01  0.1516063E+00
      -11   -1    0    0    0    0  0.00000000000E+00  0.00000000000E+00  0.50000000000E+03  0.50000000000E+03  0.00000000000E+00 0.  1.
       11   -1    0    0    0    0 -0.00000000000E+00 -0.00000000000E+00 -0.50000000000E+03  0.50000000000E+03  0.00000000000E+00 0. -1.
  1000024    1    1    2    0    0  0.17566916134E+03 -0.42911003859E+03 -0.49607588066E+02  0.50000000000E+03  0.18039957800E+03 0. -1.
 -1000024    1    1    2    0    0 -0.17566916134E+03  0.42911003859E+03  0.49607588066E+02  0.50000000000E+03  0.18039957800E+03 0.  1.
</event>
<event>
 4   0  0.6712789E-04  0.2236068E+02  0.7957747E-01  0.1516063E+00
      -11   -1    0    0    0    0  0.00000000000E+00  0.00000000000E+00  0.50000000000E+03  0.50000000000E+03  0.00000000000E+00 0.  1.
       11   -1    0    0    0    0 -0.00000000000E+00 -0.00000000000E+00 -0.50000000000E+03  0.50000000000E+03  0.00000000000E+00 0. -1.
  1000024    1    1    2    0    0 -0.19220166109E+03 -0.24753288346E+03  0.34531432831E+03  0.50000000000E+03  0.18039957800E+03 0.  1.
 -1000024    1    1    2    0    0  0.19220166109E+03  0.24753288346E+03 -0.34531432831E+03  0.50000000000E+03  0.18039957800E+03 0. -1.
</event>
<event>
 4   0  0.6712789E-04  0.2236068E+02  0.7957747E-01  0.1516063E+00
      -11   -1    0    0    0    0  0.00000000000E+00  0.00000000000E+00  0.50000000000E+03  0.50000000000E+03  0.00000000000E+00 0.  1.
       11   -1    0    0    0    0 -0.00000000000E+00 -0.00000000000E+00 -0.50000000000E+03  0.50000000000E+03  0.00000000000E+00 0. -1.
  1000024    1    1    2    0    0 -0.42654926632E+03 -0.17175751462E+03 -0.77531102356E+02  0.50000000000E+03  0.18039957800E+03 0.  1.
 -1000024    1    1    2    0    0  0.42654926632E+03  0.17175751462E+03  0.77531102356E+02  0.50000000000E+03  0.18039957800E+03 0. -1.
</event>
<event>
 4   0  0.7366543E-04  0.2236068E+02  0.7957747E-01  0.1516063E+00
      -11   -1    0    0    0    0  0.00000000000E+00  0.00000000000E+00  0.50000000000E+03  0.50000000000E+03  0.00000000000E+00 0.  1.
       11   -1    0    0    0    0 -0.00000000000E+00 -0.00000000000E+00 -0.50000000000E+03  0.50000000000E+03  0.00000000000E+00 0. -1.
  1000024    1    1    2    0    0 -0.17479358763E+03  0.34960135061E+03  0.25432673794E+03  0.50000000000E+03  0.18039957800E+03 0. -1.
 -1000024    1    1    2    0    0  0.17479358763E+03 -0.34960135061E+03 -0.25432673794E+03  0.50000000000E+03  0.18039957800E+03 0.  1.
</event>
<event>
 4   0  0.6712789E-04  0.2236068E+02  0.7957747E-01  0.1516063E+00
      -11   -1    0    0    0    0  0.00000000000E+00  0.00000000000E+00  0.50000000000E+03  0.50000000000E+03  0.00000000000E+00 0.  1.
       11   -1    0    0    0    0 -0.00000000000E+00 -0.00000000000E+00 -0.50000000000E+03  0.50000000000E+03  0.00000000000E+00 0. -1.
  1000024    1    1    2    0    0 -0.50697968925E+02 -0.13525437851E+03  0.44338692053E+03  0.50000000000E+03  0.18039957800E+03 0. -1.
 -1000024    1    1    2    0    0  0.50697968925E+02  0.13525437851E+03 -0.44338692053E+03  0.50000000000E+03  0.18039957800E+03 0. -1.
</event>
<event>
 4   0  0.1092222E-03  0.2236068E+02  0.7957747E-01  0.1516063E+00
      -11   -1    0    0    0    0  0.00000000000E+00  0.00000000000E+00  0.50000000000E+03  0.50000000000E+03  0.00000000000E+00 0.  1.
       11   -1    0    0    0    0 -0.00000000000E+00 -0.00000000000E+00 -0.50000000000E+03  0.50000000000E+03  0.00000000000E+00 0. -1.
  1000024    1    1    2    0    0 -0.23088797287E+03  0.25817260917E+03  0.31223971579E+03  0.50000000000E+03  0.18039957800E+03 0.  1.
 -1000024    1    1    2    0    0  0.23088797287E+03 -0.25817260917E+03 -0.31223971579E+03  0.50000000000E+03  0.18039957800E+03 0. -1.
</event>
<event>
 4   0  0.7366543E-04  0.2236068E+02  0.7957747E-01  0.1516063E+00
      -11   -1    0    0    0    0  0.00000000000E+00  0.00000000000E+00  0.50000000000E+03  0.50000000000E+03  0.00000000000E+00 0.  1.
       11   -1    0    0    0    0 -0.00000000000E+00 -0.00000000000E+00 -0.50000000000E+03  0.50000000000E+03  0.00000000000E+00 0. -1.
  1000024    1    1    2    0    0  0.58050171048E+01 -0.45459918038E+03 -0.10373947771E+03  0.50000000000E+03  0.18039957800E+03 0. -1.
 -1000024    1    1    2    0    0 -0.58050171048E+01  0.45459918038E+03  0.10373947771E+03  0.50000000000E+03  0.18039957800E+03 0.  1.
</event>
<event>
 4   0  0.7366543E-04  0.2236068E+02  0.7957747E-01  0.1516063E+00
      -11   -1    0    0    0    0  0.00000000000E+00  0.00000000000E+00  0.50000000000E+03  0.50000000000E+03  0.00000000000E+00 0.  1.
       11   -1    0    0    0    0 -0.00000000000E+00 -0.00000000000E+00 -0.50000000000E+03  0.50000000000E+03  0.00000000000E+00 0. -1.
  1000024    1    1    2    0    0  0.22824496930E+03  0.13086815381E+03  0.38501136680E+03  0.50000000000E+03  0.18039957800E+03 0. -1.
 -1000024    1    1    2    0    0 -0.22824496930E+03 -0.13086815381E+03 -0.38501136680E+03  0.50000000000E+03  0.18039957800E+03 0.  1.
</event>
<event>
 4   0  0.1092222E-03  0.2236068E+02  0.7957747E-01  0.1516063E+00
      -11   -1    0    0    0    0  0.00000000000E+00  0.00000000000E+00  0.50000000000E+03  0.50000000000E+03  0.00000000000E+00 0.  1.
       11   -1    0    0    0    0 -0.00000000000E+00 -0.00000000000E+00 -0.50000000000E+03  0.50000000000E+03  0.00000000000E+00 0. -1.
  1000024    1    1    2    0    0 -0.28206384455E+03 -0.36850972450E+03  0.45788238680E+02  0.50000000000E+03  0.18039957800E+03 0.  1.
 -1000024    1    1    2    0    0  0.28206384455E+03  0.36850972450E+03 -0.45788238680E+02  0.50000000000E+03  0.18039957800E+03 0. -1.
</event>
<event>
 4   0  0.7366543E-04  0.2236068E+02  0.7957747E-01  0.1516063E+00
      -11   -1    0    0    0    0  0.00000000000E+00  0.00000000000E+00  0.50000000000E+03  0.50000000000E+03  0.00000000000E+00 0.  1.
       11   -1    0    0    0    0 -0.00000000000E+00 -0.00000000000E+00 -0.50000000000E+03  0.50000000000E+03  0.00000000000E+00 0. -1.
  1000024    1    1    2    0    0  0.16562664827E+03 -0.95732697206E+02  0.42527527124E+03  0.50000000000E+03  0.18039957800E+03 0.  1.
 -1000024    1    1    2    0    0 -0.16562664827E+03  0.95732697206E+02 -0.42527527124E+03  0.50000000000E+03  0.18039957800E+03 0. -1.
</event>
<event>
 4   0  0.6712789E-04  0.2236068E+02  0.7957747E-01  0.1516063E+00
      -11   -1    0    0    0    0  0.00000000000E+00  0.00000000000E+00  0.50000000000E+03  0.50000000000E+03  0.00000000000E+00 0.  1.
       11   -1    0    0    0    0 -0.00000000000E+00 -0.00000000000E+00 -0.50000000000E+03  0.50000000000E+03  0.00000000000E+00 0. -1.
  1000024    1    1    2    0    0 -0.34446979556E+02 -0.27872316773E+03  0.37226709984E+03  0.50000000000E+03  0.18039957800E+03 0.  1.
 -1000024    1    1    2    0    0  0.34446979556E+02  0.27872316773E+03 -0.37226709984E+03  0.50000000000E+03  0.18039957800E+03 0. -1.
</event>
<event>
 4   0  0.6712789E-04  0.2236068E+02  0.7957747E-01  0.1516063E+00
      -11   -1    0    0    0    0  0.00000000000E+00  0.00000000000E+00  0.50000000000E+03  0.50000000000E+03  0.00000000000E+00 0.  1.
       11   -1    0    0    0    0 -0.00000000000E+00 -0.00000000000E+00 -0.50000000000E+03  0.50000000000E+03  0.00000000000E+00 0. -1.
  1000024    1    1    2    0    0 -0.43888817401E+03  0.12864122980E+03  0.91019761436E+02  0.50000000000E+03  0.18039957800E+03 0. -1.
 -1000024    1    1    2    0    0  0.43888817401E+03 -0.12864122980E+03 -0.91019761436E+02  0.50000000000E+03  0.18039957800E+03 0.  1.
</event>
<event>
 4   0  0.1092222E-03  0.2236068E+02  0.7957747E-01  0.1516063E+00
      -11   -1    0    0    0    0  0.00000000000E+00  0.00000000000E+00  0.50000000000E+03  0.50000000000E+03  0.00000000000E+00 0.  1.
       11   -1    0    0    0    0 -0.00000000000E+00 -0.00000000000E+00 -0.50000000000E+03  0.50000000000E+03  0.00000000000E+00 0. -1.
  1000024    1    1    2    0    0  0.25730198781E+03 -0.22434438313E+03  0.31768109337E+03  0.50000000000E+03  0.18039957800E+03 0. -1.
 -1000024    1    1    2    0    0 -0.25730198781E+03  0.22434438313E+03 -0.31768109337E+03  0.50000000000E+03  0.18039957800E+03 0.  1.
</event>
<event>
 4   0  0.6712789E-04  0.2236068E+02  0.7957747E-01  0.1516063E+00
      -11   -1    0    0    0    0  0.00000000000E+00  0.00000000000E+00  0.50000000000E+03  0.50000000000E+03  0.00000000000E+00 0.  1.
       11   -1    0    0    0    0 -0.00000000000E+00 -0.00000000000E+00 -0.50000000000E+03  0.50000000000E+03  0.00000000000E+00 0. -1.
  1000024    1    1    2    0    0 -0.31694852419E+03  0.31556893142E+03  0.13196921910E+03  0.50000000000E+03  0.18039957800E+03 0.  1.
 -1000024    1    1    2    0    0  0.31694852419E+03 -0.31556893142E+03 -0.13196921910E+03  0.50000000000E+03  0.18039957800E+03 0. -1.
</event>
<event>
 4   0  0.1092222E-03  0.2236068E+02  0.7957747E-01  0.1516063E+00
      -11   -1    0    0    0    0  0.00000000000E+00  0.00000000000E+00  0.50000000000E+03  0.50000000000E+03  0.00000000000E+00 0.  1.
       11   -1    0    0    0    0 -0.00000000000E+00 -0.00000000000E+00 -0.50000000000E+03  0.50000000000E+03  0.00000000000E+00 0. -1.
  1000024    1    1    2    0    0 -0.26685564925E+03  0.25973676239E+03  0.28067929918E+03  0.50000000000E+03  0.18039957800E+03 0. -1.
 -1000024    1    1    2    0    0  0.26685564925E+03 -0.25973676239E+03 -0.28067929918E+03  0.50000000000E+03  0.18039957800E+03 0.  1.
</event>
<event>
 4   0  0.7366543E-04  0.2236068E+02  0.7957747E-01  0.1516063E+00
      -11   -1    0    0    0    0  0.00000000000E+00  0.00000000000E+00  0.50000000000E+03  0.50000000000E+03  0.00000000000E+00 0.  1.
       11   -1    0    0    0    0 -0.00000000000E+00 -0.00000000000E+00 -0.50000000000E+03  0.50000000000E+03  0.00000000000E+00 0. -1.
  1000024    1    1    2    0    0  0.31921390373E+03  0.27630426236E+03  0.19802633797E+03  0.50000000000E+03  0.18039957800E+03 0.  1.
 -1000024    1    1    2    0    0 -0.31921390373E+03 -0.27630426236E+03 -0.19802633797E+03  0.50000000000E+03  0.18039957800E+03 0. -1.
</event>
<event>
 4   0  0.7366543E-04  0.2236068E+02  0.7957747E-01  0.1516063E+00
      -11   -1    0    0    0    0  0.00000000000E+00  0.00000000000E+00  0.50000000000E+03  0.50000000000E+03  0.00000000000E+00 0.  1.
       11   -1    0    0    0    0 -0.00000000000E+00 -0.00000000000E+00 -0.50000000000E+03  0.50000000000E+03  0.00000000000E+00 0. -1.
  1000024    1    1    2    0    0  0.33528919568E+03  0.16531049024E+03 -0.27876439755E+03  0.50000000000E+03  0.18039957800E+03 0.  1.
 -1000024    1    1    2    0    0 -0.33528919568E+03 -0.16531049024E+03  0.27876439755E+03  0.50000000000E+03  0.18039957800E+03 0. -1.
</event>
<event>
 4   0  0.7366543E-04  0.2236068E+02  0.7957747E-01  0.1516063E+00
      -11   -1    0    0    0    0  0.00000000000E+00  0.00000000000E+00  0.50000000000E+03  0.50000000000E+03  0.00000000000E+00 0.  1.
       11   -1    0    0    0    0 -0.00000000000E+00 -0.00000000000E+00 -0.50000000000E+03  0.50000000000E+03  0.00000000000E+00 0. -1.
  1000024    1    1    2    0    0  0.14215029554E+03  0.44334186778E+03 -0.26405946444E+02  0.50000000000E+03  0.18039957800E+03 0. -1.
 -1000024    1    1    2    0    0 -0.14215029554E+03 -0.44334186778E+03  0.26405946444E+02  0.50000000000E+03  0.18039957800E+03 0.  1.
</event>
<event>
 4   0  0.1092222E-03  0.2236068E+02  0.7957747E-01  0.1516063E+00
      -11   -1    0    0    0    0  0.00000000000E+00  0.00000000000E+00  0.50000000000E+03  0.50000000000E+03  0.00000000000E+00 0.  1.
       11   -1    0    0    0    0 -0.00000000000E+00 -0.00000000000E+00 -0.50000000000E+03  0.50000000000E+03  0.00000000000E+00 0. -1.
  1000024    1    1    2    0    0  0.23860653721E+03  0.28740012761E+03  0.27914884795E+03  0.50000000000E+03  0.18039957800E+03 0. -1.
 -1000024    1    1    2    0    0 -0.23860653721E+03 -0.28740012761E+03 -0.27914884795E+03  0.50000000000E+03  0.18039957800E+03 0.  1.
</event>
<event>
 4   0  0.6712789E-04  0.2236068E+02  0.7957747E-01  0.1516063E+00
      -11   -1    0    0    0    0  0.00000000000E+00  0.00000000000E+00  0.50000000000E+03  0.50000000000E+03  0.00000000000E+00 0.  1.
       11   -1    0    0    0    0 -0.00000000000E+00 -0.00000000000E+00 -0.50000000000E+03  0.50000000000E+03  0.00000000000E+00 0. -1.
  1000024    1    1    2    0    0  0.68806207224E+02 -0.16106489606E+03  0.43218028340E+03  0.50000000000E+03  0.18039957800E+03 0. -1.
 -1000024    1    1    2    0    0 -0.68806207224E+02  0.16106489606E+03 -0.43218028340E+03  0.50000000000E+03  0.18039957800E+03 0.  1.
</event>
<event>
 4   0  0.1092222E-03  0.2236068E+02  0.7957747E-01  0.1516063E+00
      -11   -1    0    0    0    0  0.00000000000E+00  0.00000000000E+00  0.50000000000E+03  0.50000000000E+03  0.00000000000E+00 0.  1.
       11   -1    0    0    0    0 -0.00000000000E+00 -0.00000000000E+00 -0.50000000000E+03  0.50000000000E+03  0.00000000000E+00 0. -1.
  1000024    1    1    2    0    0 -0.21513848030E+02  0.15792369613E+03  0.43823880796E+03  0.50000000000E+03  0.18039957800E+03 0.  1.
 -1000024    1    1    2    0    0  0.21513848030E+02 -0.15792369613E+03 -0.43823880796E+03  0.50000000000E+03  0.18039957800E+03 0. -1.
</event>
<event>
 4   0  0.7366543E-04  0.2236068E+02  0.7957747E-01  0.1516063E+00
      -11   -1    0    0    0    0  0.00000000000E+00  0.00000000000E+00  0.50000000000E+03  0.50000000000E+03  0.00000000000E+00 0.  1.
       11   -1    0    0    0    0 -0.00000000000E+00 -0.00000000000E+00 -0.50000000000E+03  0.50000000000E+03  0.00000000000E+00 0. -1.
  1000024    1    1    2    0    0  0.18956212441E+03  0.22623992500E+03  0.36102311502E+03  0.50000000000E+03  0.18039957800E+03 0.  1.
 -1000024    1    1    2    0    0 -0.18956212441E+03 -0.22623992500E+03 -0.36102311502E+03  0.50000000000E+03  0.18039957800E+03 0. -1.
</event>
<event>
 4   0  0.7366543E-04  0.2236068E+02  0.7957747E-01  0.1516063E+00
      -11   -1    0    0    0    0  0.00000000000E+00  0.00000000000E+00  0.50000000000E+03  0.50000000000E+03  0.00000000000E+00 0.  1.
       11   -1    0    0    0    0 -0.00000000000E+00 -0.00000000000E+00 -0.50000000000E+03  0.50000000000E+03  0.00000000000E+00 0. -1.
  1000024    1    1    2    0    0 -0.40373563831E+03  0.16244772811E+03  0.16752391546E+03  0.50000000000E+03  0.18039957800E+03 0. -1.
 -1000024    1    1    2    0    0  0.40373563831E+03 -0.16244772811E+03 -0.16752391546E+03  0.50000000000E+03  0.18039957800E+03 0.  1.
</event>
<event>
 4   0  0.7366543E-04  0.2236068E+02  0.7957747E-01  0.1516063E+00
      -11   -1    0    0    0    0  0.00000000000E+00  0.00000000000E+00  0.50000000000E+03  0.50000000000E+03  0.00000000000E+00 0.  1.
       11   -1    0    0    0    0 -0.00000000000E+00 -0.00000000000E+00 -0.50000000000E+03  0.50000000000E+03  0.00000000000E+00 0. -1.
  1000024    1    1    2    0    0  0.37012964560E+03 -0.30617469946E+02  0.28199753233E+03  0.50000000000E+03  0.18039957800E+03 0.  1.
 -1000024    1    1    2    0    0 -0.37012964560E+03  0.30617469946E+02 -0.28199753233E+03  0.50000000000E+03  0.18039957800E+03 0. -1.
</event>
<event>
 4   0  0.6712789E-04  0.2236068E+02  0.7957747E-01  0.1516063E+00
      -11   -1    0    0    0    0  0.00000000000E+00  0.00000000000E+00  0.50000000000E+03  0.50000000000E+03  0.00000000000E+00 0.  1.
       11   -1    0    0    0    0 -0.00000000000E+00 -0.00000000000E+00 -0.50000000000E+03  0.50000000000E+03  0.00000000000E+00 0. -1.
  1000024    1    1    2    0    0 -0.39735036237E+03 -0.20185172531E+03  0.13720263398E+03  0.50000000000E+03  0.18039957800E+03 0. -1.
 -1000024    1    1    2    0    0  0.39735036237E+03  0.20185172531E+03 -0.13720263398E+03  0.50000000000E+03  0.18039957800E+03 0.  1.
</event>
<event>
 4   0  0.6712789E-04  0.2236068E+02  0.7957747E-01  0.1516063E+00
      -11   -1    0    0    0    0  0.00000000000E+00  0.00000000000E+00  0.50000000000E+03  0.50000000000E+03  0.00000000000E+00 0.  1.
       11   -1    0    0    0    0 -0.00000000000E+00 -0.00000000000E+00 -0.50000000000E+03  0.50000000000E+03  0.00000000000E+00 0. -1.
  1000024    1    1    2    0    0 -0.30406217456E+03 -0.10185475340E+03  0.33856726875E+03  0.50000000000E+03  0.18039957800E+03 0.  1.
 -1000024    1    1    2    0    0  0.30406217456E+03  0.10185475340E+03 -0.33856726875E+03  0.50000000000E+03  0.18039957800E+03 0.  1.
</event>
<event>
 4   0  0.7366543E-04  0.2236068E+02  0.7957747E-01  0.1516063E+00
      -11   -1    0    0    0    0  0.00000000000E+00  0.00000000000E+00  0.50000000000E+03  0.50000000000E+03  0.00000000000E+00 0.  1.
       11   -1    0    0    0    0 -0.00000000000E+00 -0.00000000000E+00 -0.50000000000E+03  0.50000000000E+03  0.00000000000E+00 0. -1.
  1000024    1    1    2    0    0 -0.34805988927E+03 -0.15777283152E+03  0.26724153752E+03  0.50000000000E+03  0.18039957800E+03 0.  1.
 -1000024    1    1    2    0    0  0.34805988927E+03  0.15777283152E+03 -0.26724153752E+03  0.50000000000E+03  0.18039957800E+03 0. -1.
</event>
<event>
 4   0  0.1092222E-03  0.2236068E+02  0.7957747E-01  0.1516063E+00
      -11   -1    0    0    0    0  0.00000000000E+00  0.00000000000E+00  0.50000000000E+03  0.50000000000E+03  0.00000000000E+00 0.  1.
       11   -1    0    0    0    0 -0.00000000000E+00 -0.00000000000E+00 -0.50000000000E+03  0.50000000000E+03  0.00000000000E+00 0. -1.
  1000024    1    1    2    0    0  0.14304165916E+03 -0.11673081479E+03  0.42821605864E+03  0.50000000000E+03  0.18039957800E+03 0. -1.
 -1000024    1    1    2    0    0 -0.14304165916E+03  0.11673081479E+03 -0.42821605864E+03  0.50000000000E+03  0.18039957800E+03 0. -1.
</event>
<event>
 4   0  0.6712789E-04  0.2236068E+02  0.7957747E-01  0.1516063E+00
      -11   -1    0    0    0    0  0.00000000000E+00  0.00000000000E+00  0.50000000000E+03  0.50000000000E+03  0.00000000000E+00 0.  1.
       11   -1    0    0    0    0 -0.00000000000E+00 -0.00000000000E+00 -0.50000000000E+03  0.50000000000E+03  0.00000000000E+00 0. -1.
  1000024    1    1    2    0    0  0.30428961751E+02 -0.97049798636E+02  0.45509494298E+03  0.50000000000E+03  0.18039957800E+03 0. -1.
 -1000024    1    1    2    0    0 -0.30428961751E+02  0.97049798636E+02 -0.45509494298E+03  0.50000000000E+03  0.18039957800E+03 0.  1.
</event>
<event>
 4   0  0.7366543E-04  0.2236068E+02  0.7957747E-01  0.1516063E+00
      -11   -1    0    0    0    0  0.00000000000E+00  0.00000000000E+00  0.50000000000E+03  0.50000000000E+03  0.00000000000E+00 0.  1.
       11   -1    0    0    0    0 -0.00000000000E+00 -0.00000000000E+00 -0.50000000000E+03  0.50000000000E+03  0.00000000000E+00 0. -1.
  1000024    1    1    2    0    0 -0.44240286390E+03 -0.63526117690E+02  0.13304183793E+03  0.50000000000E+03  0.18039957800E+03 0.  1.
 -1000024    1    1    2    0    0  0.44240286390E+03  0.63526117690E+02 -0.13304183793E+03  0.50000000000E+03  0.18039957800E+03 0. -1.
</event>
<event>
 4   0  0.1092222E-03  0.2236068E+02  0.7957747E-01  0.1516063E+00
      -11   -1    0    0    0    0  0.00000000000E+00  0.00000000000E+00  0.50000000000E+03  0.50000000000E+03  0.00000000000E+00 0.  1.
       11   -1    0    0    0    0 -0.00000000000E+00 -0.00000000000E+00 -0.50000000000E+03  0.50000000000E+03  0.00000000000E+00 0. -1.
  1000024    1    1    2    0    0  0.31229920567E+03 -0.34111654446E+03  0.59705121114E+02  0.50000000000E+03  0.18039957800E+03 0. -1.
 -1000024    1    1    2    0    0 -0.31229920567E+03  0.34111654446E+03 -0.59705121114E+02  0.50000000000E+03  0.18039957800E+03 0.  1.
</event>
<event>
 4   0  0.6712789E-04  0.2236068E+02  0.7957747E-01  0.1516063E+00
      -11   -1    0    0    0    0  0.00000000000E+00  0.00000000000E+00  0.50000000000E+03  0.50000000000E+03  0.00000000000E+00 0.  1.
       11   -1    0    0    0    0 -0.00000000000E+00 -0.00000000000E+00 -0.50000000000E+03  0.50000000000E+03  0.00000000000E+00 0. -1.
  1000024    1    1    2    0    0  0.33496743288E+03 -0.21964663856E+03  0.23876382752E+03  0.50000000000E+03  0.18039957800E+03 0.  1.
 -1000024    1    1    2    0    0 -0.33496743288E+03  0.21964663856E+03 -0.23876382752E+03  0.50000000000E+03  0.18039957800E+03 0. -1.
</event>
<event>
 4   0  0.1092222E-03  0.2236068E+02  0.7957747E-01  0.1516063E+00
      -11   -1    0    0    0    0  0.00000000000E+00  0.00000000000E+00  0.50000000000E+03  0.50000000000E+03  0.00000000000E+00 0.  1.
       11   -1    0    0    0    0 -0.00000000000E+00 -0.00000000000E+00 -0.50000000000E+03  0.50000000000E+03  0.00000000000E+00 0. -1.
  1000024    1    1    2    0    0  0.55256317533E+01  0.41912573398E+03  0.20435038235E+03  0.50000000000E+03  0.18039957800E+03 0.  1.
 -1000024    1    1    2    0    0 -0.55256317533E+01 -0.41912573398E+03 -0.20435038235E+03  0.50000000000E+03  0.18039957800E+03 0. -1.
</event>
<event>
 4   0  0.1092222E-03  0.2236068E+02  0.7957747E-01  0.1516063E+00
      -11   -1    0    0    0    0  0.00000000000E+00  0.00000000000E+00  0.50000000000E+03  0.50000000000E+03  0.00000000000E+00 0.  1.
       11   -1    0    0    0    0 -0.00000000000E+00 -0.00000000000E+00 -0.50000000000E+03  0.50000000000E+03  0.00000000000E+00 0. -1.
  1000024    1    1    2    0    0  0.54011374700E+02 -0.21389765268E+03  0.41083641251E+03  0.50000000000E+03  0.18039957800E+03 0.  1.
 -1000024    1    1    2    0    0 -0.54011374700E+02  0.21389765268E+03 -0.41083641251E+03  0.50000000000E+03  0.18039957800E+03 0. -1.
</event>
<event>
 4   0  0.1092222E-03  0.2236068E+02  0.7957747E-01  0.1516063E+00
      -11   -1    0    0    0    0  0.00000000000E+00  0.00000000000E+00  0.50000000000E+03  0.50000000000E+03  0.00000000000E+00 0.  1.
       11   -1    0    0    0    0 -0.00000000000E+00 -0.00000000000E+00 -0.50000000000E+03  0.50000000000E+03  0.00000000000E+00 0. -1.
  1000024    1    1    2    0    0 -0.23551021635E+03 -0.18393893851E+02  0.40206043690E+03  0.50000000000E+03  0.18039957800E+03 0.  1.
 -1000024    1    1    2    0    0  0.23551021635E+03  0.18393893851E+02 -0.40206043690E+03  0.50000000000E+03  0.18039957800E+03 0. -1.
</event>
<event>
 4   0  0.1092222E-03  0.2236068E+02  0.7957747E-01  0.1516063E+00
      -11   -1    0    0    0    0  0.00000000000E+00  0.00000000000E+00  0.50000000000E+03  0.50000000000E+03  0.00000000000E+00 0.  1.
       11   -1    0    0    0    0 -0.00000000000E+00 -0.00000000000E+00 -0.50000000000E+03  0.50000000000E+03  0.00000000000E+00 0. -1.
  1000024    1    1    2    0    0  0.64240941677E+02 -0.23828511737E+03  0.39566310987E+03  0.50000000000E+03  0.18039957800E+03 0.  1.
 -1000024    1    1    2    0    0 -0.64240941677E+02  0.23828511737E+03 -0.39566310987E+03  0.50000000000E+03  0.18039957800E+03 0.  1.
</event>
<event>
 4   0  0.6712789E-04  0.2236068E+02  0.7957747E-01  0.1516063E+00
      -11   -1    0    0    0    0  0.00000000000E+00  0.00000000000E+00  0.50000000000E+03  0.50000000000E+03  0.00000000000E+00 0.  1.
       11   -1    0    0    0    0 -0.00000000000E+00 -0.00000000000E+00 -0.50000000000E+03  0.50000000000E+03  0.00000000000E+00 0. -1.
  1000024    1    1    2    0    0 -0.43760622084E+03  0.14469863509E+03  0.70845555576E+02  0.50000000000E+03  0.18039957800E+03 0.  1.
 -1000024    1    1    2    0    0  0.43760622084E+03 -0.14469863509E+03 -0.70845555576E+02  0.50000000000E+03  0.18039957800E+03 0. -1.
</event>
<event>
 4   0  0.1092222E-03  0.2236068E+02  0.7957747E-01  0.1516063E+00
      -11   -1    0    0    0    0  0.00000000000E+00  0.00000000000E+00  0.50000000000E+03  0.50000000000E+03  0.00000000000E+00 0.  1.
       11   -1    0    0    0    0 -0.00000000000E+00 -0.00000000000E+00 -0.50000000000E+03  0.50000000000E+03  0.00000000000E+00 0. -1.
  1000024    1    1    2    0    0  0.46566791537E+03  0.19929389184E+01  0.24605142701E+02  0.50000000000E+03  0.18039957800E+03 0.  1.
 -1000024    1    1    2    0    0 -0.46566791537E+03 -0.19929389184E+01 -0.24605142701E+02  0.50000000000E+03  0.18039957800E+03 0. -1.
</event>
<event>
 4   0  0.1092222E-03  0.2236068E+02  0.7957747E-01  0.1516063E+00
      -11   -1    0    0    0    0  0.00000000000E+00  0.00000000000E+00  0.50000000000E+03  0.50000000000E+03  0.00000000000E+00 0.  1.
       11   -1    0    0    0    0 -0.00000000000E+00 -0.00000000000E+00 -0.50000000000E+03  0.50000000000E+03  0.00000000000E+00 0. -1.
  1000024    1    1    2    0    0 -0.14806221877E+03  0.36616970399E+03  0.24789780053E+03  0.50000000000E+03  0.18039957800E+03 0. -1.
 -1000024    1    1    2    0    0  0.14806221877E+03 -0.36616970399E+03 -0.24789780053E+03  0.50000000000E+03  0.18039957800E+03 0.  1.
</event>
<event>
 4   0  0.1092222E-03  0.2236068E+02  0.7957747E-01  0.1516063E+00
      -11   -1    0    0    0    0  0.00000000000E+00  0.00000000000E+00  0.50000000000E+03  0.50000000000E+03  0.00000000000E+00 0.  1.
       11   -1    0    0    0    0 -0.00000000000E+00 -0.00000000000E+00 -0.50000000000E+03  0.50000000000E+03  0.00000000000E+00 0. -1.
  1000024    1    1    2    0    0 -0.23892984131E+03 -0.34098080352E+03  0.21000146384E+03  0.50000000000E+03  0.18039957800E+03 0. -1.
 -1000024    1    1    2    0    0  0.23892984131E+03  0.34098080352E+03 -0.21000146384E+03  0.50000000000E+03  0.18039957800E+03 0.  1.
</event>
<event>
 4   0  0.1092222E-03  0.2236068E+02  0.7957747E-01  0.1516063E+00
      -11   -1    0    0    0    0  0.00000000000E+00  0.00000000000E+00  0.50000000000E+03  0.50000000000E+03  0.00000000000E+00 0.  1.
       11   -1    0    0    0    0 -0.00000000000E+00 -0.00000000000E+00 -0.50000000000E+03  0.50000000000E+03  0.00000000000E+00 0. -1.
  1000024    1    1    2    0    0 -0.43569759460E+03  0.15675763427E+03  0.55232620966E+02  0.50000000000E+03  0.18039957800E+03 0. -1.
 -1000024    1    1    2    0    0  0.43569759460E+03 -0.15675763427E+03 -0.55232620966E+02  0.50000000000E+03  0.18039957800E+03 0.  1.
</event>
<event>
 4   0  0.6712789E-04  0.2236068E+02  0.7957747E-01  0.1516063E+00
      -11   -1    0    0    0    0  0.00000000000E+00  0.00000000000E+00  0.50000000000E+03  0.50000000000E+03  0.00000000000E+00 0.  1.
       11   -1    0    0    0    0 -0.00000000000E+00 -0.00000000000E+00 -0.50000000000E+03  0.50000000000E+03  0.00000000000E+00 0. -1.
  1000024    1    1    2    0    0 -0.30865831089E+03 -0.27308779512E+03 -0.21819508596E+03  0.50000000000E+03  0.18039957800E+03 0.  1.
 -1000024    1    1    2    0    0  0.30865831089E+03  0.27308779512E+03  0.21819508596E+03  0.50000000000E+03  0.18039957800E+03 0. -1.
</event>
<event>
 4   0  0.6712789E-04  0.2236068E+02  0.7957747E-01  0.1516063E+00
      -11   -1    0    0    0    0  0.00000000000E+00  0.00000000000E+00  0.50000000000E+03  0.50000000000E+03  0.00000000000E+00 0.  1.
       11   -1    0    0    0    0 -0.00000000000E+00 -0.00000000000E+00 -0.50000000000E+03  0.50000000000E+03  0.00000000000E+00 0. -1.
  1000024    1    1    2    0    0  0.30594367696E+03  0.40895294545E+02  0.34954546724E+03  0.50000000000E+03  0.18039957800E+03 0. -1.
 -1000024    1    1    2    0    0 -0.30594367696E+03 -0.40895294545E+02 -0.34954546724E+03  0.50000000000E+03  0.18039957800E+03 0.  1.
</event>
<event>
 4   0  0.6712789E-04  0.2236068E+02  0.7957747E-01  0.1516063E+00
      -11   -1    0    0    0    0  0.00000000000E+00  0.00000000000E+00  0.50000000000E+03  0.50000000000E+03  0.00000000000E+00 0.  1.
       11   -1    0    0    0    0 -0.00000000000E+00 -0.00000000000E+00 -0.50000000000E+03  0.50000000000E+03  0.00000000000E+00 0. -1.
  1000024    1    1    2    0    0  0.13826995660E+03  0.29163616712E+03  0.33657949639E+03  0.50000000000E+03  0.18039957800E+03 0.  1.
 -1000024    1    1    2    0    0 -0.13826995660E+03 -0.29163616712E+03 -0.33657949639E+03  0.50000000000E+03  0.18039957800E+03 0. -1.
</event>
<event>
 4   0  0.7366543E-04  0.2236068E+02  0.7957747E-01  0.1516063E+00
      -11   -1    0    0    0    0  0.00000000000E+00  0.00000000000E+00  0.50000000000E+03  0.50000000000E+03  0.00000000000E+00 0.  1.
       11   -1    0    0    0    0 -0.00000000000E+00 -0.00000000000E+00 -0.50000000000E+03  0.50000000000E+03  0.00000000000E+00 0. -1.
  1000024    1    1    2    0    0  0.19472835244E+03 -0.35452752370E+03  0.23204977043E+03  0.50000000000E+03  0.18039957800E+03 0. -1.
 -1000024    1    1    2    0    0 -0.19472835244E+03  0.35452752370E+03 -0.23204977043E+03  0.50000000000E+03  0.18039957800E+03 0.  1.
</event>
<event>
 4   0  0.1092222E-03  0.2236068E+02  0.7957747E-01  0.1516063E+00
      -11   -1    0    0    0    0  0.00000000000E+00  0.00000000000E+00  0.50000000000E+03  0.50000000000E+03  0.00000000000E+00 0.  1.
       11   -1    0    0    0    0 -0.00000000000E+00 -0.00000000000E+00 -0.50000000000E+03  0.50000000000E+03  0.00000000000E+00 0. -1.
  1000024    1    1    2    0    0  0.97834600901E+02  0.18995553829E+03  0.41448917549E+03  0.50000000000E+03  0.18039957800E+03 0.  1.
 -1000024    1    1    2    0    0 -0.97834600901E+02 -0.18995553829E+03 -0.41448917549E+03  0.50000000000E+03  0.18039957800E+03 0.  1.
</event>
<event>
 4   0  0.1092222E-03  0.2236068E+02  0.7957747E-01  0.1516063E+00
      -11   -1    0    0    0    0  0.00000000000E+00  0.00000000000E+00  0.50000000000E+03  0.50000000000E+03  0.00000000000E+00 0.  1.
       11   -1    0    0    0    0 -0.00000000000E+00 -0.00000000000E+00 -0.50000000000E+03  0.50000000000E+03  0.00000000000E+00 0. -1.
  1000024    1    1    2    0    0 -0.34778288108E+03  0.28765683825E+03 -0.11728854715E+03  0.50000000000E+03  0.18039957800E+03 0.  1.
 -1000024    1    1    2    0    0  0.34778288108E+03 -0.28765683825E+03  0.11728854715E+03  0.50000000000E+03  0.18039957800E+03 0. -1.
</event>
<event>
 4   0  0.1092222E-03  0.2236068E+02  0.7957747E-01  0.1516063E+00
      -11   -1    0    0    0    0  0.00000000000E+00  0.00000000000E+00  0.50000000000E+03  0.50000000000E+03  0.00000000000E+00 0.  1.
       11   -1    0    0    0    0 -0.00000000000E+00 -0.00000000000E+00 -0.50000000000E+03  0.50000000000E+03  0.00000000000E+00 0. -1.
  1000024    1    1    2    0    0  0.34567173867E+03  0.81148946778E+02  0.30229437603E+03  0.50000000000E+03  0.18039957800E+03 0.  1.
 -1000024    1    1    2    0    0 -0.34567173867E+03 -0.81148946778E+02 -0.30229437603E+03  0.50000000000E+03  0.18039957800E+03 0. -1.
</event>
<event>
 4   0  0.1092222E-03  0.2236068E+02  0.7957747E-01  0.1516063E+00
      -11   -1    0    0    0    0  0.00000000000E+00  0.00000000000E+00  0.50000000000E+03  0.50000000000E+03  0.00000000000E+00 0.  1.
       11   -1    0    0    0    0 -0.00000000000E+00 -0.00000000000E+00 -0.50000000000E+03  0.50000000000E+03  0.00000000000E+00 0. -1.
  1000024    1    1    2    0    0 -0.17138475368E+03  0.37280637715E+03  0.22158218254E+03  0.50000000000E+03  0.18039957800E+03 0.  1.
 -1000024    1    1    2    0    0  0.17138475368E+03 -0.37280637715E+03 -0.22158218254E+03  0.50000000000E+03  0.18039957800E+03 0. -1.
</event>
<event>
 4   0  0.7366543E-04  0.2236068E+02  0.7957747E-01  0.1516063E+00
      -11   -1    0    0    0    0  0.00000000000E+00  0.00000000000E+00  0.50000000000E+03  0.50000000000E+03  0.00000000000E+00 0.  1.
       11   -1    0    0    0    0 -0.00000000000E+00 -0.00000000000E+00 -0.50000000000E+03  0.50000000000E+03  0.00000000000E+00 0. -1.
  1000024    1    1    2    0    0  0.38324767716E+03  0.21831670306E+03  0.15137710320E+03  0.50000000000E+03  0.18039957800E+03 0.  1.
 -1000024    1    1    2    0    0 -0.38324767716E+03 -0.21831670306E+03 -0.15137710320E+03  0.50000000000E+03  0.18039957800E+03 0. -1.
</event>
<event>
 4   0  0.7366543E-04  0.2236068E+02  0.7957747E-01  0.1516063E+00
      -11   -1    0    0    0    0  0.00000000000E+00  0.00000000000E+00  0.50000000000E+03  0.50000000000E+03  0.00000000000E+00 0.  1.
       11   -1    0    0    0    0 -0.00000000000E+00 -0.00000000000E+00 -0.50000000000E+03  0.50000000000E+03  0.00000000000E+00 0. -1.
  1000024    1    1    2    0    0  0.30815441161E+03  0.15339567783E+03  0.31458960073E+03  0.50000000000E+03  0.18039957800E+03 0.  1.
 -1000024    1    1    2    0    0 -0.30815441161E+03 -0.15339567783E+03 -0.31458960073E+03  0.50000000000E+03  0.18039957800E+03 0. -1.
</event>
<event>
 4   0  0.1092222E-03  0.2236068E+02  0.7957747E-01  0.1516063E+00
      -11   -1    0    0    0    0  0.00000000000E+00  0.00000000000E+00  0.50000000000E+03  0.50000000000E+03  0.00000000000E+00 0.  1.
       11   -1    0    0    0    0 -0.00000000000E+00 -0.00000000000E+00 -0.50000000000E+03  0.50000000000E+03  0.00000000000E+00 0. -1.
  1000024    1    1    2    0    0  0.29877787518E+03 -0.14643801760E+03  0.32671651406E+03  0.50000000000E+03  0.18039957800E+03 0. -1.
 -1000024    1    1    2    0    0 -0.29877787518E+03  0.14643801760E+03 -0.32671651406E+03  0.50000000000E+03  0.18039957800E+03 0. -1.
</event>
<event>
 4   0  0.1092222E-03  0.2236068E+02  0.7957747E-01  0.1516063E+00
      -11   -1    0    0    0    0  0.00000000000E+00  0.00000000000E+00  0.50000000000E+03  0.50000000000E+03  0.00000000000E+00 0.  1.
       11   -1    0    0    0    0 -0.00000000000E+00 -0.00000000000E+00 -0.50000000000E+03  0.50000000000E+03  0.00000000000E+00 0. -1.
  1000024    1    1    2    0    0  0.16529173609E+03 -0.13435179406E+03  0.41483036252E+03  0.50000000000E+03  0.18039957800E+03 0.  1.
 -1000024    1    1    2    0    0 -0.16529173609E+03  0.13435179406E+03 -0.41483036252E+03  0.50000000000E+03  0.18039957800E+03 0. -1.
</event>
<event>
 4   0  0.1092222E-03  0.2236068E+02  0.7957747E-01  0.1516063E+00
      -11   -1    0    0    0    0  0.00000000000E+00  0.00000000000E+00  0.50000000000E+03  0.50000000000E+03  0.00000000000E+00 0.  1.
       11   -1    0    0    0    0 -0.00000000000E+00 -0.00000000000E+00 -0.50000000000E+03  0.50000000000E+03  0.00000000000E+00 0. -1.
  1000024    1    1    2    0    0  0.12264615225E+03 -0.44680276698E+03 -0.52737093315E+02  0.50000000000E+03  0.18039957800E+03 0. -1.
 -1000024    1    1    2    0    0 -0.12264615225E+03  0.44680276698E+03  0.52737093315E+02  0.50000000000E+03  0.18039957800E+03 0.  1.
</event>
<event>
 4   0  0.1092222E-03  0.2236068E+02  0.7957747E-01  0.1516063E+00
      -11   -1    0    0    0    0  0.00000000000E+00  0.00000000000E+00  0.50000000000E+03  0.50000000000E+03  0.00000000000E+00 0.  1.
       11   -1    0    0    0    0 -0.00000000000E+00 -0.00000000000E+00 -0.50000000000E+03  0.50000000000E+03  0.00000000000E+00 0. -1.
  1000024    1    1    2    0    0  0.30715278081E+02  0.31344891949E+03  0.34389291766E+03  0.50000000000E+03  0.18039957800E+03 0. -1.
 -1000024    1    1    2    0    0 -0.30715278081E+02 -0.31344891949E+03 -0.34389291766E+03  0.50000000000E+03  0.18039957800E+03 0. -1.
</event>
<event>
 4   0  0.1092222E-03  0.2236068E+02  0.7957747E-01  0.1516063E+00
      -11   -1    0    0    0    0  0.00000000000E+00  0.00000000000E+00  0.50000000000E+03  0.50000000000E+03  0.00000000000E+00 0.  1.
       11   -1    0    0    0    0 -0.00000000000E+00 -0.00000000000E+00 -0.50000000000E+03  0.50000000000E+03  0.00000000000E+00 0. -1.
  1000024    1    1    2    0    0 -0.36471182131E+03  0.22338244082E+03  0.18585361118E+03  0.50000000000E+03  0.18039957800E+03 0. -1.
 -1000024    1    1    2    0    0  0.36471182131E+03 -0.22338244082E+03 -0.18585361118E+03  0.50000000000E+03  0.18039957800E+03 0.  1.
</event>
<event>
 4   0  0.7366543E-04  0.2236068E+02  0.7957747E-01  0.1516063E+00
      -11   -1    0    0    0    0  0.00000000000E+00  0.00000000000E+00  0.50000000000E+03  0.50000000000E+03  0.00000000000E+00 0.  1.
       11   -1    0    0    0    0 -0.00000000000E+00 -0.00000000000E+00 -0.50000000000E+03  0.50000000000E+03  0.00000000000E+00 0. -1.
  1000024    1    1    2    0    0 -0.36501217210E+03  0.90436340695E+02  0.27575963221E+03  0.50000000000E+03  0.18039957800E+03 0. -1.
 -1000024    1    1    2    0    0  0.36501217210E+03 -0.90436340695E+02 -0.27575963221E+03  0.50000000000E+03  0.18039957800E+03 0.  1.
</event>
<event>
 4   0  0.7366543E-04  0.2236068E+02  0.7957747E-01  0.1516063E+00
      -11   -1    0    0    0    0  0.00000000000E+00  0.00000000000E+00  0.50000000000E+03  0.50000000000E+03  0.00000000000E+00 0.  1.
       11   -1    0    0    0    0 -0.00000000000E+00 -0.00000000000E+00 -0.50000000000E+03  0.50000000000E+03  0.00000000000E+00 0. -1.
  1000024    1    1    2    0    0  0.52916272577E+02  0.36327742438E+03  0.28755064474E+03  0.50000000000E+03  0.18039957800E+03 0. -1.
 -1000024    1    1    2    0    0 -0.52916272577E+02 -0.36327742438E+03 -0.28755064474E+03  0.50000000000E+03  0.18039957800E+03 0.  1.
</event>
<event>
 4   0  0.7366543E-04  0.2236068E+02  0.7957747E-01  0.1516063E+00
      -11   -1    0    0    0    0  0.00000000000E+00  0.00000000000E+00  0.50000000000E+03  0.50000000000E+03  0.00000000000E+00 0.  1.
       11   -1    0    0    0    0 -0.00000000000E+00 -0.00000000000E+00 -0.50000000000E+03  0.50000000000E+03  0.00000000000E+00 0. -1.
  1000024    1    1    2    0    0 -0.13264301688E+03  0.35020058562E+03  0.27788733718E+03  0.50000000000E+03  0.18039957800E+03 0.  1.
 -1000024    1    1    2    0    0  0.13264301688E+03 -0.35020058562E+03 -0.27788733718E+03  0.50000000000E+03  0.18039957800E+03 0. -1.
</event>
<event>
 4   0  0.7366543E-04  0.2236068E+02  0.7957747E-01  0.1516063E+00
      -11   -1    0    0    0    0  0.00000000000E+00  0.00000000000E+00  0.50000000000E+03  0.50000000000E+03  0.00000000000E+00 0.  1.
       11   -1    0    0    0    0 -0.00000000000E+00 -0.00000000000E+00 -0.50000000000E+03  0.50000000000E+03  0.00000000000E+00 0. -1.
  1000024    1    1    2    0    0  0.13511200508E+03 -0.39410994548E+03  0.20947097463E+03  0.50000000000E+03  0.18039957800E+03 0. -1.
 -1000024    1    1    2    0    0 -0.13511200508E+03  0.39410994548E+03 -0.20947097463E+03  0.50000000000E+03  0.18039957800E+03 0.  1.
</event>
<event>
 4   0  0.6712789E-04  0.2236068E+02  0.7957747E-01  0.1516063E+00
      -11   -1    0    0    0    0  0.00000000000E+00  0.00000000000E+00  0.50000000000E+03  0.50000000000E+03  0.00000000000E+00 0.  1.
       11   -1    0    0    0    0 -0.00000000000E+00 -0.00000000000E+00 -0.50000000000E+03  0.50000000000E+03  0.00000000000E+00 0. -1.
  1000024    1    1    2    0    0  0.83940471453E+02 -0.13473889712E+03  0.43846940499E+03  0.50000000000E+03  0.18039957800E+03 0. -1.
 -1000024    1    1    2    0    0 -0.83940471453E+02  0.13473889712E+03 -0.43846940499E+03  0.50000000000E+03  0.18039957800E+03 0.  1.
</event>
<event>
 4   0  0.6712789E-04  0.2236068E+02  0.7957747E-01  0.1516063E+00
      -11   -1    0    0    0    0  0.00000000000E+00  0.00000000000E+00  0.50000000000E+03  0.50000000000E+03  0.00000000000E+00 0.  1.
       11   -1    0    0    0    0 -0.00000000000E+00 -0.00000000000E+00 -0.50000000000E+03  0.50000000000E+03  0.00000000000E+00 0. -1.
  1000024    1    1    2    0    0  0.34902844877E+03 -0.22962320152E+03  0.20714323434E+03  0.50000000000E+03  0.18039957800E+03 0.  1.
 -1000024    1    1    2    0    0 -0.34902844877E+03  0.22962320152E+03 -0.20714323434E+03  0.50000000000E+03  0.18039957800E+03 0. -1.
</event>
<event>
 4   0  0.1092222E-03  0.2236068E+02  0.7957747E-01  0.1516063E+00
      -11   -1    0    0    0    0  0.00000000000E+00  0.00000000000E+00  0.50000000000E+03  0.50000000000E+03  0.00000000000E+00 0.  1.
       11   -1    0    0    0    0 -0.00000000000E+00 -0.00000000000E+00 -0.50000000000E+03  0.50000000000E+03  0.00000000000E+00 0. -1.
  1000024    1    1    2    0    0  0.36763086767E+03  0.16227266298E+03  0.23658216383E+03  0.50000000000E+03  0.18039957800E+03 0. -1.
 -1000024    1    1    2    0    0 -0.36763086767E+03 -0.16227266298E+03 -0.23658216383E+03  0.50000000000E+03  0.18039957800E+03 0.  1.
</event>
<event>
 4   0  0.7366543E-04  0.2236068E+02  0.7957747E-01  0.1516063E+00
      -11   -1    0    0    0    0  0.00000000000E+00  0.00000000000E+00  0.50000000000E+03  0.50000000000E+03  0.00000000000E+00 0.  1.
       11   -1    0    0    0    0 -0.00000000000E+00 -0.00000000000E+00 -0.50000000000E+03  0.50000000000E+03  0.00000000000E+00 0. -1.
  1000024    1    1    2    0    0 -0.88684488066E+02 -0.99665085704E+02  0.44683097982E+03  0.50000000000E+03  0.18039957800E+03 0. -1.
 -1000024    1    1    2    0    0  0.88684488066E+02  0.99665085704E+02 -0.44683097982E+03  0.50000000000E+03  0.18039957800E+03 0. -1.
</event>
<event>
 4   0  0.7366543E-04  0.2236068E+02  0.7957747E-01  0.1516063E+00
      -11   -1    0    0    0    0  0.00000000000E+00  0.00000000000E+00  0.50000000000E+03  0.50000000000E+03  0.00000000000E+00 0.  1.
       11   -1    0    0    0    0 -0.00000000000E+00 -0.00000000000E+00 -0.50000000000E+03  0.50000000000E+03  0.00000000000E+00 0. -1.
  1000024    1    1    2    0    0  0.14896864063E+01 -0.33044725350E+03  0.32902642105E+03  0.50000000000E+03  0.18039957800E+03 0. -1.
 -1000024    1    1    2    0    0 -0.14896864063E+01  0.33044725350E+03 -0.32902642105E+03  0.50000000000E+03  0.18039957800E+03 0.  1.
</event>
<event>
 4   0  0.1092222E-03  0.2236068E+02  0.7957747E-01  0.1516063E+00
      -11   -1    0    0    0    0  0.00000000000E+00  0.00000000000E+00  0.50000000000E+03  0.50000000000E+03  0.00000000000E+00 0.  1.
       11   -1    0    0    0    0 -0.00000000000E+00 -0.00000000000E+00 -0.50000000000E+03  0.50000000000E+03  0.00000000000E+00 0. -1.
  1000024    1    1    2    0    0  0.23536923486E+03  0.30795556856E+03  0.25926951871E+03  0.50000000000E+03  0.18039957800E+03 0. -1.
 -1000024    1    1    2    0    0 -0.23536923486E+03 -0.30795556856E+03 -0.25926951871E+03  0.50000000000E+03  0.18039957800E+03 0.  1.
</event>
<event>
 4   0  0.7366543E-04  0.2236068E+02  0.7957747E-01  0.1516063E+00
      -11   -1    0    0    0    0  0.00000000000E+00  0.00000000000E+00  0.50000000000E+03  0.50000000000E+03  0.00000000000E+00 0.  1.
       11   -1    0    0    0    0 -0.00000000000E+00 -0.00000000000E+00 -0.50000000000E+03  0.50000000000E+03  0.00000000000E+00 0. -1.
  1000024    1    1    2    0    0 -0.70524716004E+02 -0.45825357852E+03 -0.49858945677E+02  0.50000000000E+03  0.18039957800E+03 0.  1.
 -1000024    1    1    2    0    0  0.70524716004E+02  0.45825357852E+03  0.49858945677E+02  0.50000000000E+03  0.18039957800E+03 0. -1.
</event>
<event>
 4   0  0.1092222E-03  0.2236068E+02  0.7957747E-01  0.1516063E+00
      -11   -1    0    0    0    0  0.00000000000E+00  0.00000000000E+00  0.50000000000E+03  0.50000000000E+03  0.00000000000E+00 0.  1.
       11   -1    0    0    0    0 -0.00000000000E+00 -0.00000000000E+00 -0.50000000000E+03  0.50000000000E+03  0.00000000000E+00 0. -1.
  1000024    1    1    2    0    0 -0.74314919616E+02  0.26371423712E+03  0.37734345909E+03  0.50000000000E+03  0.18039957800E+03 0. -1.
 -1000024    1    1    2    0    0  0.74314919616E+02 -0.26371423712E+03 -0.37734345909E+03  0.50000000000E+03  0.18039957800E+03 0.  1.
</event>
<event>
 4   0  0.1092222E-03  0.2236068E+02  0.7957747E-01  0.1516063E+00
      -11   -1    0    0    0    0  0.00000000000E+00  0.00000000000E+00  0.50000000000E+03  0.50000000000E+03  0.00000000000E+00 0.  1.
       11   -1    0    0    0    0 -0.00000000000E+00 -0.00000000000E+00 -0.50000000000E+03  0.50000000000E+03  0.00000000000E+00 0. -1.
  1000024    1    1    2    0    0 -0.27356142241E+02 -0.43218408388E+03 -0.17298714224E+03  0.50000000000E+03  0.18039957800E+03 0.  1.
 -1000024    1    1    2    0    0  0.27356142241E+02  0.43218408388E+03  0.17298714224E+03  0.50000000000E+03  0.18039957800E+03 0. -1.
</event>
<event>
 4   0  0.7366543E-04  0.2236068E+02  0.7957747E-01  0.1516063E+00
      -11   -1    0    0    0    0  0.00000000000E+00  0.00000000000E+00  0.50000000000E+03  0.50000000000E+03  0.00000000000E+00 0.  1.
       11   -1    0    0    0    0 -0.00000000000E+00 -0.00000000000E+00 -0.50000000000E+03  0.50000000000E+03  0.00000000000E+00 0. -1.
  1000024    1    1    2    0    0 -0.12342093836E+03  0.12884268773E+03  0.43083967558E+03  0.50000000000E+03  0.18039957800E+03 0. -1.
 -1000024    1    1    2    0    0  0.12342093836E+03 -0.12884268773E+03 -0.43083967558E+03  0.50000000000E+03  0.18039957800E+03 0.  1.
</event>
<event>
 4   0  0.1092222E-03  0.2236068E+02  0.7957747E-01  0.1516063E+00
      -11   -1    0    0    0    0  0.00000000000E+00  0.00000000000E+00  0.50000000000E+03  0.50000000000E+03  0.00000000000E+00 0.  1.
       11   -1    0    0    0    0 -0.00000000000E+00 -0.00000000000E+00 -0.50000000000E+03  0.50000000000E+03  0.00000000000E+00 0. -1.
  1000024    1    1    2    0    0  0.30334087425E+03 -0.35166780936E+03  0.42072058744E+02  0.50000000000E+03  0.18039957800E+03 0.  1.
 -1000024    1    1    2    0    0 -0.30334087425E+03  0.35166780936E+03 -0.42072058744E+02  0.50000000000E+03  0.18039957800E+03 0. -1.
</event>
<event>
 4   0  0.1092222E-03  0.2236068E+02  0.7957747E-01  0.1516063E+00
      -11   -1    0    0    0    0  0.00000000000E+00  0.00000000000E+00  0.50000000000E+03  0.50000000000E+03  0.00000000000E+00 0.  1.
       11   -1    0    0    0    0 -0.00000000000E+00 -0.00000000000E+00 -0.50000000000E+03  0.50000000000E+03  0.00000000000E+00 0. -1.
  1000024    1    1    2    0    0  0.15087811865E+03  0.24154306230E+03  0.36925429534E+03  0.50000000000E+03  0.18039957800E+03 0.  1.
 -1000024    1    1    2    0    0 -0.15087811865E+03 -0.24154306230E+03 -0.36925429534E+03  0.50000000000E+03  0.18039957800E+03 0. -1.
</event>
<event>
 4   0  0.7366543E-04  0.2236068E+02  0.7957747E-01  0.1516063E+00
      -11   -1    0    0    0    0  0.00000000000E+00  0.00000000000E+00  0.50000000000E+03  0.50000000000E+03  0.00000000000E+00 0.  1.
       11   -1    0    0    0    0 -0.00000000000E+00 -0.00000000000E+00 -0.50000000000E+03  0.50000000000E+03  0.00000000000E+00 0. -1.
  1000024    1    1    2    0    0  0.38761536755E+03 -0.16381455905E+03  0.20093558505E+03  0.50000000000E+03  0.18039957800E+03 0. -1.
 -1000024    1    1    2    0    0 -0.38761536755E+03  0.16381455905E+03 -0.20093558505E+03  0.50000000000E+03  0.18039957800E+03 0.  1.
</event>
<event>
 4   0  0.1092222E-03  0.2236068E+02  0.7957747E-01  0.1516063E+00
      -11   -1    0    0    0    0  0.00000000000E+00  0.00000000000E+00  0.50000000000E+03  0.50000000000E+03  0.00000000000E+00 0.  1.
       11   -1    0    0    0    0 -0.00000000000E+00 -0.00000000000E+00 -0.50000000000E+03  0.50000000000E+03  0.00000000000E+00 0. -1.
  1000024    1    1    2    0    0  0.12322063485E+03 -0.42583628736E+03  0.14469320570E+03  0.50000000000E+03  0.18039957800E+03 0.  1.
 -1000024    1    1    2    0    0 -0.12322063485E+03  0.42583628736E+03 -0.14469320570E+03  0.50000000000E+03  0.18039957800E+03 0. -1.
</event>
<event>
 4   0  0.6712789E-04  0.2236068E+02  0.7957747E-01  0.1516063E+00
      -11   -1    0    0    0    0  0.00000000000E+00  0.00000000000E+00  0.50000000000E+03  0.50000000000E+03  0.00000000000E+00 0.  1.
       11   -1    0    0    0    0 -0.00000000000E+00 -0.00000000000E+00 -0.50000000000E+03  0.50000000000E+03  0.00000000000E+00 0. -1.
  1000024    1    1    2    0    0  0.33899214379E+03 -0.36183568546E+01  0.32019872923E+03  0.50000000000E+03  0.18039957800E+03 0. -1.
 -1000024    1    1    2    0    0 -0.33899214379E+03  0.36183568546E+01 -0.32019872923E+03  0.50000000000E+03  0.18039957800E+03 0.  1.
</event>
<event>
 4   0  0.1092222E-03  0.2236068E+02  0.7957747E-01  0.1516063E+00
      -11   -1    0    0    0    0  0.00000000000E+00  0.00000000000E+00  0.50000000000E+03  0.50000000000E+03  0.00000000000E+00 0.  1.
       11   -1    0    0    0    0 -0.00000000000E+00 -0.00000000000E+00 -0.50000000000E+03  0.50000000000E+03  0.00000000000E+00 0. -1.
  1000024    1    1    2    0    0  0.12932792203E+03  0.44490181776E+03 -0.52845561736E+02  0.50000000000E+03  0.18039957800E+03 0. -1.
 -1000024    1    1    2    0    0 -0.12932792203E+03 -0.44490181776E+03  0.52845561736E+02  0.50000000000E+03  0.18039957800E+03 0.  1.
</event>
<event>
 4   0  0.7366543E-04  0.2236068E+02  0.7957747E-01  0.1516063E+00
      -11   -1    0    0    0    0  0.00000000000E+00  0.00000000000E+00  0.50000000000E+03  0.50000000000E+03  0.00000000000E+00 0.  1.
       11   -1    0    0    0    0 -0.00000000000E+00 -0.00000000000E+00 -0.50000000000E+03  0.50000000000E+03  0.00000000000E+00 0. -1.
  1000024    1    1    2    0    0  0.45952985862E+03  0.79089550058E+02 -0.57571147445E+01  0.50000000000E+03  0.18039957800E+03 0.  1.
 -1000024    1    1    2    0    0 -0.45952985862E+03 -0.79089550058E+02  0.57571147445E+01  0.50000000000E+03  0.18039957800E+03 0. -1.
</event>
<event>
 4   0  0.7366543E-04  0.2236068E+02  0.7957747E-01  0.1516063E+00
      -11   -1    0    0    0    0  0.00000000000E+00  0.00000000000E+00  0.50000000000E+03  0.50000000000E+03  0.00000000000E+00 0.  1.
       11   -1    0    0    0    0 -0.00000000000E+00 -0.00000000000E+00 -0.50000000000E+03  0.50000000000E+03  0.00000000000E+00 0. -1.
  1000024    1    1    2    0    0 -0.41894212166E+01  0.12384679805E+03  0.44955579367E+03  0.50000000000E+03  0.18039957800E+03 0.  1.
 -1000024    1    1    2    0    0  0.41894212166E+01 -0.12384679805E+03 -0.44955579367E+03  0.50000000000E+03  0.18039957800E+03 0.  1.
</event>
<event>
 4   0  0.1092222E-03  0.2236068E+02  0.7957747E-01  0.1516063E+00
      -11   -1    0    0    0    0  0.00000000000E+00  0.00000000000E+00  0.50000000000E+03  0.50000000000E+03  0.00000000000E+00 0.  1.
       11   -1    0    0    0    0 -0.00000000000E+00 -0.00000000000E+00 -0.50000000000E+03  0.50000000000E+03  0.00000000000E+00 0. -1.
  1000024    1    1    2    0    0 -0.26858526951E+03 -0.13499930894E+03  0.35650123681E+03  0.50000000000E+03  0.18039957800E+03 0.  1.
 -1000024    1    1    2    0    0  0.26858526951E+03  0.13499930894E+03 -0.35650123681E+03  0.50000000000E+03  0.18039957800E+03 0. -1.
</event>
<event>
 4   0  0.6712789E-04  0.2236068E+02  0.7957747E-01  0.1516063E+00
      -11   -1    0    0    0    0  0.00000000000E+00  0.00000000000E+00  0.50000000000E+03  0.50000000000E+03  0.00000000000E+00 0.  1.
       11   -1    0    0    0    0 -0.00000000000E+00 -0.00000000000E+00 -0.50000000000E+03  0.50000000000E+03  0.00000000000E+00 0. -1.
  1000024    1    1    2    0    0  0.20662414635E+03  0.55801997995E+02  0.41430494979E+03  0.50000000000E+03  0.18039957800E+03 0. -1.
 -1000024    1    1    2    0    0 -0.20662414635E+03 -0.55801997995E+02 -0.41430494979E+03  0.50000000000E+03  0.18039957800E+03 0.  1.
</event>
<event>
 4   0  0.6712789E-04  0.2236068E+02  0.7957747E-01  0.1516063E+00
      -11   -1    0    0    0    0  0.00000000000E+00  0.00000000000E+00  0.50000000000E+03  0.50000000000E+03  0.00000000000E+00 0.  1.
       11   -1    0    0    0    0 -0.00000000000E+00 -0.00000000000E+00 -0.50000000000E+03  0.50000000000E+03  0.00000000000E+00 0. -1.
  1000024    1    1    2    0    0 -0.44245822182E+03  0.75559916445E+02  0.12640179283E+03  0.50000000000E+03  0.18039957800E+03 0. -1.
 -1000024    1    1    2    0    0  0.44245822182E+03 -0.75559916445E+02 -0.12640179283E+03  0.50000000000E+03  0.18039957800E+03 0.  1.
</event>
<event>
 4   0  0.7366543E-04  0.2236068E+02  0.7957747E-01  0.1516063E+00
      -11   -1    0    0    0    0  0.00000000000E+00  0.00000000000E+00  0.50000000000E+03  0.50000000000E+03  0.00000000000E+00 0.  1.
       11   -1    0    0    0    0 -0.00000000000E+00 -0.00000000000E+00 -0.50000000000E+03  0.50000000000E+03  0.00000000000E+00 0. -1.
  1000024    1    1    2    0    0 -0.31965333134E+03  0.25503907451E+03 -0.22412677327E+03  0.50000000000E+03  0.18039957800E+03 0.  1.
 -1000024    1    1    2    0    0  0.31965333134E+03 -0.25503907451E+03  0.22412677327E+03  0.50000000000E+03  0.18039957800E+03 0. -1.
</event>
<event>
 4   0  0.1092222E-03  0.2236068E+02  0.7957747E-01  0.1516063E+00
      -11   -1    0    0    0    0  0.00000000000E+00  0.00000000000E+00  0.50000000000E+03  0.50000000000E+03  0.00000000000E+00 0.  1.
       11   -1    0    0    0    0 -0.00000000000E+00 -0.00000000000E+00 -0.50000000000E+03  0.50000000000E+03  0.00000000000E+00 0. -1.
  1000024    1    1    2    0    0 -0.39252326980E+03 -0.24498597417E+03  0.57994373760E+02  0.50000000000E+03  0.18039957800E+03 0.  1.
 -1000024    1    1    2    0    0  0.39252326980E+03  0.24498597417E+03 -0.57994373760E+02  0.50000000000E+03  0.18039957800E+03 0. -1.
</event>
<event>
 4   0  0.1092222E-03  0.2236068E+02  0.7957747E-01  0.1516063E+00
      -11   -1    0    0    0    0  0.00000000000E+00  0.00000000000E+00  0.50000000000E+03  0.50000000000E+03  0.00000000000E+00 0.  1.
       11   -1    0    0    0    0 -0.00000000000E+00 -0.00000000000E+00 -0.50000000000E+03  0.50000000000E+03  0.00000000000E+00 0. -1.
  1000024    1    1    2    0    0 -0.14312372453E+03  0.37434571425E+03  0.23840486144E+03  0.50000000000E+03  0.18039957800E+03 0. -1.
 -1000024    1    1    2    0    0  0.14312372453E+03 -0.37434571425E+03 -0.23840486144E+03  0.50000000000E+03  0.18039957800E+03 0.  1.
</event>
<event>
 4   0  0.1092222E-03  0.2236068E+02  0.7957747E-01  0.1516063E+00
      -11   -1    0    0    0    0  0.00000000000E+00  0.00000000000E+00  0.50000000000E+03  0.50000000000E+03  0.00000000000E+00 0.  1.
       11   -1    0    0    0    0 -0.00000000000E+00 -0.00000000000E+00 -0.50000000000E+03  0.50000000000E+03  0.00000000000E+00 0. -1.
  1000024    1    1    2    0    0  0.21366494783E+03  0.41351254562E+03 -0.28472037826E+02  0.50000000000E+03  0.18039957800E+03 0. -1.
 -1000024    1    1    2    0    0 -0.21366494783E+03 -0.41351254562E+03  0.28472037826E+02  0.50000000000E+03  0.18039957800E+03 0.  1.
</event>
<event>
 4   0  0.6712789E-04  0.2236068E+02  0.7957747E-01  0.1516063E+00
      -11   -1    0    0    0    0  0.00000000000E+00  0.00000000000E+00  0.50000000000E+03  0.50000000000E+03  0.00000000000E+00 0.  1.
       11   -1    0    0    0    0 -0.00000000000E+00 -0.00000000000E+00 -0.50000000000E+03  0.50000000000E+03  0.00000000000E+00 0. -1.
  1000024    1    1    2    0    0  0.23843128154E+03  0.11834194183E+03  0.38288601574E+03  0.50000000000E+03  0.18039957800E+03 0.  1.
 -1000024    1    1    2    0    0 -0.23843128154E+03 -0.11834194183E+03 -0.38288601574E+03  0.50000000000E+03  0.18039957800E+03 0. -1.
</event>
<event>
 4   0  0.6712789E-04  0.2236068E+02  0.7957747E-01  0.1516063E+00
      -11   -1    0    0    0    0  0.00000000000E+00  0.00000000000E+00  0.50000000000E+03  0.50000000000E+03  0.00000000000E+00 0.  1.
       11   -1    0    0    0    0 -0.00000000000E+00 -0.00000000000E+00 -0.50000000000E+03  0.50000000000E+03  0.00000000000E+00 0. -1.
  1000024    1    1    2    0    0  0.19066813205E+03  0.23732554151E+03  0.35323963966E+03  0.50000000000E+03  0.18039957800E+03 0.  1.
 -1000024    1    1    2    0    0 -0.19066813205E+03 -0.23732554151E+03 -0.35323963966E+03  0.50000000000E+03  0.18039957800E+03 0. -1.
</event>
<event>
 4   0  0.1092222E-03  0.2236068E+02  0.7957747E-01  0.1516063E+00
      -11   -1    0    0    0    0  0.00000000000E+00  0.00000000000E+00  0.50000000000E+03  0.50000000000E+03  0.00000000000E+00 0.  1.
       11   -1    0    0    0    0 -0.00000000000E+00 -0.00000000000E+00 -0.50000000000E+03  0.50000000000E+03  0.00000000000E+00 0. -1.
  1000024    1    1    2    0    0  0.28731164040E+03  0.34342494777E+03 -0.13025866113E+03  0.50000000000E+03  0.18039957800E+03 0.  1.
 -1000024    1    1    2    0    0 -0.28731164040E+03 -0.34342494777E+03  0.13025866113E+03  0.50000000000E+03  0.18039957800E+03 0. -1.
</event>
<event>
 4   0  0.1092222E-03  0.2236068E+02  0.7957747E-01  0.1516063E+00
      -11   -1    0    0    0    0  0.00000000000E+00  0.00000000000E+00  0.50000000000E+03  0.50000000000E+03  0.00000000000E+00 0.  1.
       11   -1    0    0    0    0 -0.00000000000E+00 -0.00000000000E+00 -0.50000000000E+03  0.50000000000E+03  0.00000000000E+00 0. -1.
  1000024    1    1    2    0    0  0.20806434590E+02  0.29804607832E+03  0.35803857297E+03  0.50000000000E+03  0.18039957800E+03 0.  1.
 -1000024    1    1    2    0    0 -0.20806434590E+02 -0.29804607832E+03 -0.35803857297E+03  0.50000000000E+03  0.18039957800E+03 0. -1.
</event>
<event>
 4   0  0.1092222E-03  0.2236068E+02  0.7957747E-01  0.1516063E+00
      -11   -1    0    0    0    0  0.00000000000E+00  0.00000000000E+00  0.50000000000E+03  0.50000000000E+03  0.00000000000E+00 0.  1.
       11   -1    0    0    0    0 -0.00000000000E+00 -0.00000000000E+00 -0.50000000000E+03  0.50000000000E+03  0.00000000000E+00 0. -1.
  1000024    1    1    2    0    0  0.45675685130E+03  0.81711624434E+02  0.46393765525E+02  0.50000000000E+03  0.18039957800E+03 0.  1.
 -1000024    1    1    2    0    0 -0.45675685130E+03 -0.81711624434E+02 -0.46393765525E+02  0.50000000000E+03  0.18039957800E+03 0. -1.
</event>
<event>
 4   0  0.6712789E-04  0.2236068E+02  0.7957747E-01  0.1516063E+00
      -11   -1    0    0    0    0  0.00000000000E+00  0.00000000000E+00  0.50000000000E+03  0.50000000000E+03  0.00000000000E+00 0.  1.
       11   -1    0    0    0    0 -0.00000000000E+00 -0.00000000000E+00 -0.50000000000E+03  0.50000000000E+03  0.00000000000E+00 0. -1.
  1000024    1    1    2    0    0 -0.11326305144E+03 -0.44288817523E+03  0.92073544963E+02  0.50000000000E+03  0.18039957800E+03 0. -1.
 -1000024    1    1    2    0    0  0.11326305144E+03  0.44288817523E+03 -0.92073544963E+02  0.50000000000E+03  0.18039957800E+03 0.  1.
</event>
<event>
 4   0  0.1092222E-03  0.2236068E+02  0.7957747E-01  0.1516063E+00
      -11   -1    0    0    0    0  0.00000000000E+00  0.00000000000E+00  0.50000000000E+03  0.50000000000E+03  0.00000000000E+00 0.  1.
       11   -1    0    0    0    0 -0.00000000000E+00 -0.00000000000E+00 -0.50000000000E+03  0.50000000000E+03  0.00000000000E+00 0. -1.
  1000024    1    1    2    0    0 -0.10387331539E+03  0.64249220571E+02  0.45004262494E+03  0.50000000000E+03  0.18039957800E+03 0.  1.
 -1000024    1    1    2    0    0  0.10387331539E+03 -0.64249220571E+02 -0.45004262494E+03  0.50000000000E+03  0.18039957800E+03 0.  1.
</event>
<event>
 4   0  0.1092222E-03  0.2236068E+02  0.7957747E-01  0.1516063E+00
      -11   -1    0    0    0    0  0.00000000000E+00  0.00000000000E+00  0.50000000000E+03  0.50000000000E+03  0.00000000000E+00 0.  1.
       11   -1    0    0    0    0 -0.00000000000E+00 -0.00000000000E+00 -0.50000000000E+03  0.50000000000E+03  0.00000000000E+00 0. -1.
  1000024    1    1    2    0    0  0.13642395223E+03  0.21955739381E+03  0.38812246565E+03  0.50000000000E+03  0.18039957800E+03 0.  1.
 -1000024    1    1    2    0    0 -0.13642395223E+03 -0.21955739381E+03 -0.38812246565E+03  0.50000000000E+03  0.18039957800E+03 0. -1.
</event>
<event>
 4   0  0.6712789E-04  0.2236068E+02  0.7957747E-01  0.1516063E+00
      -11   -1    0    0    0    0  0.00000000000E+00  0.00000000000E+00  0.50000000000E+03  0.50000000000E+03  0.00000000000E+00 0.  1.
       11   -1    0    0    0    0 -0.00000000000E+00 -0.00000000000E+00 -0.50000000000E+03  0.50000000000E+03  0.00000000000E+00 0. -1.
  1000024    1    1    2    0    0  0.39037711223E+03  0.20051086727E+03  0.15766132883E+03  0.50000000000E+03  0.18039957800E+03 0.  1.
 -1000024    1    1    2    0    0 -0.39037711223E+03 -0.20051086727E+03 -0.15766132883E+03  0.50000000000E+03  0.18039957800E+03 0. -1.
</event>
<event>
 4   0  0.1092222E-03  0.2236068E+02  0.7957747E-01  0.1516063E+00
      -11   -1    0    0    0    0  0.00000000000E+00  0.00000000000E+00  0.50000000000E+03  0.50000000000E+03  0.00000000000E+00 0.  1.
       11   -1    0    0    0    0 -0.00000000000E+00 -0.00000000000E+00 -0.50000000000E+03  0.50000000000E+03  0.00000000000E+00 0. -1.
  1000024    1    1    2    0    0  0.61536339567E+02  0.26631650307E+03  0.37781581672E+03  0.50000000000E+03  0.18039957800E+03 0.  1.
 -1000024    1    1    2    0    0 -0.61536339567E+02 -0.26631650307E+03 -0.37781581672E+03  0.50000000000E+03  0.18039957800E+03 0. -1.
</event>
<event>
 4   0  0.1092222E-03  0.2236068E+02  0.7957747E-01  0.1516063E+00
      -11   -1    0    0    0    0  0.00000000000E+00  0.00000000000E+00  0.50000000000E+03  0.50000000000E+03  0.00000000000E+00 0.  1.
       11   -1    0    0    0    0 -0.00000000000E+00 -0.00000000000E+00 -0.50000000000E+03  0.50000000000E+03  0.00000000000E+00 0. -1.
  1000024    1    1    2    0    0 -0.67732090721E+02 -0.10804613104E+03  0.44854697604E+03  0.50000000000E+03  0.18039957800E+03 0. -1.
 -1000024    1    1    2    0    0  0.67732090721E+02  0.10804613104E+03 -0.44854697604E+03  0.50000000000E+03  0.18039957800E+03 0. -1.
</event>
<event>
 4   0  0.7366543E-04  0.2236068E+02  0.7957747E-01  0.1516063E+00
      -11   -1    0    0    0    0  0.00000000000E+00  0.00000000000E+00  0.50000000000E+03  0.50000000000E+03  0.00000000000E+00 0.  1.
       11   -1    0    0    0    0 -0.00000000000E+00 -0.00000000000E+00 -0.50000000000E+03  0.50000000000E+03  0.00000000000E+00 0. -1.
  1000024    1    1    2    0    0 -0.28714863937E+03 -0.35746549621E+02  0.36568269764E+03  0.50000000000E+03  0.18039957800E+03 0.  1.
 -1000024    1    1    2    0    0  0.28714863937E+03  0.35746549621E+02 -0.36568269764E+03  0.50000000000E+03  0.18039957800E+03 0. -1.
</event>
<event>
 4   0  0.1092222E-03  0.2236068E+02  0.7957747E-01  0.1516063E+00
      -11   -1    0    0    0    0  0.00000000000E+00  0.00000000000E+00  0.50000000000E+03  0.50000000000E+03  0.00000000000E+00 0.  1.
       11   -1    0    0    0    0 -0.00000000000E+00 -0.00000000000E+00 -0.50000000000E+03  0.50000000000E+03  0.00000000000E+00 0. -1.
  1000024    1    1    2    0    0  0.25409851778E+03 -0.11672923327E+03  0.37318121821E+03  0.50000000000E+03  0.18039957800E+03 0. -1.
 -1000024    1    1    2    0    0 -0.25409851778E+03  0.11672923327E+03 -0.37318121821E+03  0.50000000000E+03  0.18039957800E+03 0.  1.
</event>
<event>
 4   0  0.1092222E-03  0.2236068E+02  0.7957747E-01  0.1516063E+00
      -11   -1    0    0    0    0  0.00000000000E+00  0.00000000000E+00  0.50000000000E+03  0.50000000000E+03  0.00000000000E+00 0.  1.
       11   -1    0    0    0    0 -0.00000000000E+00 -0.00000000000E+00 -0.50000000000E+03  0.50000000000E+03  0.00000000000E+00 0. -1.
  1000024    1    1    2    0    0  0.42363173421E+03 -0.79368003808E+02  0.17802490275E+03  0.50000000000E+03  0.18039957800E+03 0. -1.
 -1000024    1    1    2    0    0 -0.42363173421E+03  0.79368003808E+02 -0.17802490275E+03  0.50000000000E+03  0.18039957800E+03 0.  1.
</event>
<event>
 4   0  0.1092222E-03  0.2236068E+02  0.7957747E-01  0.1516063E+00
      -11   -1    0    0    0    0  0.00000000000E+00  0.00000000000E+00  0.50000000000E+03  0.50000000000E+03  0.00000000000E+00 0.  1.
       11   -1    0    0    0    0 -0.00000000000E+00 -0.00000000000E+00 -0.50000000000E+03  0.50000000000E+03  0.00000000000E+00 0. -1.
  1000024    1    1    2    0    0  0.38919235616E+03 -0.20922097636E+03  0.14903652310E+03  0.50000000000E+03  0.18039957800E+03 0. -1.
 -1000024    1    1    2    0    0 -0.38919235616E+03  0.20922097636E+03 -0.14903652310E+03  0.50000000000E+03  0.18039957800E+03 0.  1.
</event>
<event>
 4   0  0.6712789E-04  0.2236068E+02  0.7957747E-01  0.1516063E+00
      -11   -1    0    0    0    0  0.00000000000E+00  0.00000000000E+00  0.50000000000E+03  0.50000000000E+03  0.00000000000E+00 0.  1.
       11   -1    0    0    0    0 -0.00000000000E+00 -0.00000000000E+00 -0.50000000000E+03  0.50000000000E+03  0.00000000000E+00 0. -1.
  1000024    1    1    2    0    0 -0.37234607951E+03 -0.22825820052E+03 -0.16343984590E+03  0.50000000000E+03  0.18039957800E+03 0. -1.
 -1000024    1    1    2    0    0  0.37234607951E+03  0.22825820052E+03  0.16343984590E+03  0.50000000000E+03  0.18039957800E+03 0.  1.
</event>
<event>
 4   0  0.7366543E-04  0.2236068E+02  0.7957747E-01  0.1516063E+00
      -11   -1    0    0    0    0  0.00000000000E+00  0.00000000000E+00  0.50000000000E+03  0.50000000000E+03  0.00000000000E+00 0.  1.
       11   -1    0    0    0    0 -0.00000000000E+00 -0.00000000000E+00 -0.50000000000E+03  0.50000000000E+03  0.00000000000E+00 0. -1.
  1000024    1    1    2    0    0 -0.17692135828E+03  0.35146531637E+03  0.25025378444E+03  0.50000000000E+03  0.18039957800E+03 0.  1.
 -1000024    1    1    2    0    0  0.17692135828E+03 -0.35146531637E+03 -0.25025378444E+03  0.50000000000E+03  0.18039957800E+03 0. -1.
</event>
<event>
 4   0  0.7366543E-04  0.2236068E+02  0.7957747E-01  0.1516063E+00
      -11   -1    0    0    0    0  0.00000000000E+00  0.00000000000E+00  0.50000000000E+03  0.50000000000E+03  0.00000000000E+00 0.  1.
       11   -1    0    0    0    0 -0.00000000000E+00 -0.00000000000E+00 -0.50000000000E+03  0.50000000000E+03  0.00000000000E+00 0. -1.
  1000024    1    1    2    0    0 -0.12855279127E+03 -0.37747617280E+03  0.24174761857E+03  0.50000000000E+03  0.18039957800E+03 0. -1.
 -1000024    1    1    2    0    0  0.12855279127E+03  0.37747617280E+03 -0.24174761857E+03  0.50000000000E+03  0.18039957800E+03 0.  1.
</event>
<event>
 4   0  0.6712789E-04  0.2236068E+02  0.7957747E-01  0.1516063E+00
      -11   -1    0    0    0    0  0.00000000000E+00  0.00000000000E+00  0.50000000000E+03  0.50000000000E+03  0.00000000000E+00 0.  1.
       11   -1    0    0    0    0 -0.00000000000E+00 -0.00000000000E+00 -0.50000000000E+03  0.50000000000E+03  0.00000000000E+00 0. -1.
  1000024    1    1    2    0    0 -0.46272000170E+03 -0.57693282138E+02 -0.42044597792E+01  0.50000000000E+03  0.18039957800E+03 0.  1.
 -1000024    1    1    2    0    0  0.46272000170E+03  0.57693282138E+02  0.42044597792E+01  0.50000000000E+03  0.18039957800E+03 0. -1.
</event>
<event>
 4   0  0.7366543E-04  0.2236068E+02  0.7957747E-01  0.1516063E+00
      -11   -1    0    0    0    0  0.00000000000E+00  0.00000000000E+00  0.50000000000E+03  0.50000000000E+03  0.00000000000E+00 0.  1.
       11   -1    0    0    0    0 -0.00000000000E+00 -0.00000000000E+00 -0.50000000000E+03  0.50000000000E+03  0.00000000000E+00 0. -1.
  1000024    1    1    2    0    0  0.39247809910E+03 -0.14500422837E+03  0.20589003799E+03  0.50000000000E+03  0.18039957800E+03 0. -1.
 -1000024    1    1    2    0    0 -0.39247809910E+03  0.14500422837E+03 -0.20589003799E+03  0.50000000000E+03  0.18039957800E+03 0.  1.
</event>
<event>
 4   0  0.7366543E-04  0.2236068E+02  0.7957747E-01  0.1516063E+00
      -11   -1    0    0    0    0  0.00000000000E+00  0.00000000000E+00  0.50000000000E+03  0.50000000000E+03  0.00000000000E+00 0.  1.
       11   -1    0    0    0    0 -0.00000000000E+00 -0.00000000000E+00 -0.50000000000E+03  0.50000000000E+03  0.00000000000E+00 0. -1.
  1000024    1    1    2    0    0 -0.31502902796E+03 -0.26299006927E+03  0.22146992407E+03  0.50000000000E+03  0.18039957800E+03 0.  1.
 -1000024    1    1    2    0    0  0.31502902796E+03  0.26299006927E+03 -0.22146992407E+03  0.50000000000E+03  0.18039957800E+03 0. -1.
</event>
<event>
 4   0  0.1092222E-03  0.2236068E+02  0.7957747E-01  0.1516063E+00
      -11   -1    0    0    0    0  0.00000000000E+00  0.00000000000E+00  0.50000000000E+03  0.50000000000E+03  0.00000000000E+00 0.  1.
       11   -1    0    0    0    0 -0.00000000000E+00 -0.00000000000E+00 -0.50000000000E+03  0.50000000000E+03  0.00000000000E+00 0. -1.
  1000024    1    1    2    0    0 -0.59887147845E+02 -0.20682594183E+03  0.41363335403E+03  0.50000000000E+03  0.18039957800E+03 0. -1.
 -1000024    1    1    2    0    0  0.59887147845E+02  0.20682594183E+03 -0.41363335403E+03  0.50000000000E+03  0.18039957800E+03 0. -1.
</event>
<event>
 4   0  0.6712789E-04  0.2236068E+02  0.7957747E-01  0.1516063E+00
      -11   -1    0    0    0    0  0.00000000000E+00  0.00000000000E+00  0.50000000000E+03  0.50000000000E+03  0.00000000000E+00 0.  1.
       11   -1    0    0    0    0 -0.00000000000E+00 -0.00000000000E+00 -0.50000000000E+03  0.50000000000E+03  0.00000000000E+00 0. -1.
  1000024    1    1    2    0    0  0.38749243053E+03  0.23366956146E+03  0.11271266382E+03  0.50000000000E+03  0.18039957800E+03 0.  1.
 -1000024    1    1    2    0    0 -0.38749243053E+03 -0.23366956146E+03 -0.11271266382E+03  0.50000000000E+03  0.18039957800E+03 0.  1.
</event>
<event>
 4   0  0.1092222E-03  0.2236068E+02  0.7957747E-01  0.1516063E+00
      -11   -1    0    0    0    0  0.00000000000E+00  0.00000000000E+00  0.50000000000E+03  0.50000000000E+03  0.00000000000E+00 0.  1.
       11   -1    0    0    0    0 -0.00000000000E+00 -0.00000000000E+00 -0.50000000000E+03  0.50000000000E+03  0.00000000000E+00 0. -1.
  1000024    1    1    2    0    0  0.27182784687E+03 -0.15200564715E+03  0.34707333110E+03  0.50000000000E+03  0.18039957800E+03 0.  1.
 -1000024    1    1    2    0    0 -0.27182784687E+03  0.15200564715E+03 -0.34707333110E+03  0.50000000000E+03  0.18039957800E+03 0. -1.
</event>
<event>
 4   0  0.7366543E-04  0.2236068E+02  0.7957747E-01  0.1516063E+00
      -11   -1    0    0    0    0  0.00000000000E+00  0.00000000000E+00  0.50000000000E+03  0.50000000000E+03  0.00000000000E+00 0.  1.
       11   -1    0    0    0    0 -0.00000000000E+00 -0.00000000000E+00 -0.50000000000E+03  0.50000000000E+03  0.00000000000E+00 0. -1.
  1000024    1    1    2    0    0 -0.93868670843E+02 -0.39308710531E+03 -0.23265251456E+03  0.50000000000E+03  0.18039957800E+03 0.  1.
 -1000024    1    1    2    0    0  0.93868670843E+02  0.39308710531E+03  0.23265251456E+03  0.50000000000E+03  0.18039957800E+03 0. -1.
</event>
<event>
 4   0  0.7366543E-04  0.2236068E+02  0.7957747E-01  0.1516063E+00
      -11   -1    0    0    0    0  0.00000000000E+00  0.00000000000E+00  0.50000000000E+03  0.50000000000E+03  0.00000000000E+00 0.  1.
       11   -1    0    0    0    0 -0.00000000000E+00 -0.00000000000E+00 -0.50000000000E+03  0.50000000000E+03  0.00000000000E+00 0. -1.
  1000024    1    1    2    0    0  0.28102008106E+03 -0.16839731518E+03  0.33185245296E+03  0.50000000000E+03  0.18039957800E+03 0. -1.
 -1000024    1    1    2    0    0 -0.28102008106E+03  0.16839731518E+03 -0.33185245296E+03  0.50000000000E+03  0.18039957800E+03 0. -1.
</event>
<event>
 4   0  0.7366543E-04  0.2236068E+02  0.7957747E-01  0.1516063E+00
      -11   -1    0    0    0    0  0.00000000000E+00  0.00000000000E+00  0.50000000000E+03  0.50000000000E+03  0.00000000000E+00 0.  1.
       11   -1    0    0    0    0 -0.00000000000E+00 -0.00000000000E+00 -0.50000000000E+03  0.50000000000E+03  0.00000000000E+00 0. -1.
  1000024    1    1    2    0    0  0.15075104067E+02  0.29388752519E+03  0.36174418590E+03  0.50000000000E+03  0.18039957800E+03 0.  1.
 -1000024    1    1    2    0    0 -0.15075104067E+02 -0.29388752519E+03 -0.36174418590E+03  0.50000000000E+03  0.18039957800E+03 0. -1.
</event>
<event>
 4   0  0.7366543E-04  0.2236068E+02  0.7957747E-01  0.1516063E+00
      -11   -1    0    0    0    0  0.00000000000E+00  0.00000000000E+00  0.50000000000E+03  0.50000000000E+03  0.00000000000E+00 0.  1.
       11   -1    0    0    0    0 -0.00000000000E+00 -0.00000000000E+00 -0.50000000000E+03  0.50000000000E+03  0.00000000000E+00 0. -1.
  1000024    1    1    2    0    0 -0.44120548022E+03 -0.77264476606E+02 -0.12970704351E+03  0.50000000000E+03  0.18039957800E+03 0.  1.
 -1000024    1    1    2    0    0  0.44120548022E+03  0.77264476606E+02  0.12970704351E+03  0.50000000000E+03  0.18039957800E+03 0. -1.
</event>
<event>
 4   0  0.1092222E-03  0.2236068E+02  0.7957747E-01  0.1516063E+00
      -11   -1    0    0    0    0  0.00000000000E+00  0.00000000000E+00  0.50000000000E+03  0.50000000000E+03  0.00000000000E+00 0.  1.
       11   -1    0    0    0    0 -0.00000000000E+00 -0.00000000000E+00 -0.50000000000E+03  0.50000000000E+03  0.00000000000E+00 0. -1.
  1000024    1    1    2    0    0  0.31894584130E+03 -0.29524462817E+03  0.16899749145E+03  0.50000000000E+03  0.18039957800E+03 0.  1.
 -1000024    1    1    2    0    0 -0.31894584130E+03  0.29524462817E+03 -0.16899749145E+03  0.50000000000E+03  0.18039957800E+03 0. -1.
</event>
<event>
 4   0  0.1092222E-03  0.2236068E+02  0.7957747E-01  0.1516063E+00
      -11   -1    0    0    0    0  0.00000000000E+00  0.00000000000E+00  0.50000000000E+03  0.50000000000E+03  0.00000000000E+00 0.  1.
       11   -1    0    0    0    0 -0.00000000000E+00 -0.00000000000E+00 -0.50000000000E+03  0.50000000000E+03  0.00000000000E+00 0. -1.
  1000024    1    1    2    0    0  0.69210529226E+01 -0.46617309698E+03 -0.95254886551E+01  0.50000000000E+03  0.18039957800E+03 0.  1.
 -1000024    1    1    2    0    0 -0.69210529226E+01  0.46617309698E+03  0.95254886551E+01  0.50000000000E+03  0.18039957800E+03 0. -1.
</event>
<event>
 4   0  0.1092222E-03  0.2236068E+02  0.7957747E-01  0.1516063E+00
      -11   -1    0    0    0    0  0.00000000000E+00  0.00000000000E+00  0.50000000000E+03  0.50000000000E+03  0.00000000000E+00 0.  1.
       11   -1    0    0    0    0 -0.00000000000E+00 -0.00000000000E+00 -0.50000000000E+03  0.50000000000E+03  0.00000000000E+00 0. -1.
  1000024    1    1    2    0    0 -0.29281253168E+03 -0.20175546791E+03  0.30168119715E+03  0.50000000000E+03  0.18039957800E+03 0. -1.
 -1000024    1    1    2    0    0  0.29281253168E+03  0.20175546791E+03 -0.30168119715E+03  0.50000000000E+03  0.18039957800E+03 0.  1.
</event>
<event>
 4   0  0.1092222E-03  0.2236068E+02  0.7957747E-01  0.1516063E+00
      -11   -1    0    0    0    0  0.00000000000E+00  0.00000000000E+00  0.50000000000E+03  0.50000000000E+03  0.00000000000E+00 0.  1.
       11   -1    0    0    0    0 -0.00000000000E+00 -0.00000000000E+00 -0.50000000000E+03  0.50000000000E+03  0.00000000000E+00 0. -1.
  1000024    1    1    2    0    0 -0.34691489108E+03  0.23758317396E+03 -0.20164395863E+03  0.50000000000E+03  0.18039957800E+03 0. -1.
 -1000024    1    1    2    0    0  0.34691489108E+03 -0.23758317396E+03  0.20164395863E+03  0.50000000000E+03  0.18039957800E+03 0.  1.
</event>
<event>
 4   0  0.1092222E-03  0.2236068E+02  0.7957747E-01  0.1516063E+00
      -11   -1    0    0    0    0  0.00000000000E+00  0.00000000000E+00  0.50000000000E+03  0.50000000000E+03  0.00000000000E+00 0.  1.
       11   -1    0    0    0    0 -0.00000000000E+00 -0.00000000000E+00 -0.50000000000E+03  0.50000000000E+03  0.00000000000E+00 0. -1.
  1000024    1    1    2    0    0  0.42048592239E+03  0.14940847559E+03  0.13536871407E+03  0.50000000000E+03  0.18039957800E+03 0.  1.
 -1000024    1    1    2    0    0 -0.42048592239E+03 -0.14940847559E+03 -0.13536871407E+03  0.50000000000E+03  0.18039957800E+03 0. -1.
</event>
<event>
 4   0  0.6712789E-04  0.2236068E+02  0.7957747E-01  0.1516063E+00
      -11   -1    0    0    0    0  0.00000000000E+00  0.00000000000E+00  0.50000000000E+03  0.50000000000E+03  0.00000000000E+00 0.  1.
       11   -1    0    0    0    0 -0.00000000000E+00 -0.00000000000E+00 -0.50000000000E+03  0.50000000000E+03  0.00000000000E+00 0. -1.
  1000024    1    1    2    0    0  0.35314753354E+03  0.15689332286E+03  0.26101206305E+03  0.50000000000E+03  0.18039957800E+03 0.  1.
 -1000024    1    1    2    0    0 -0.35314753354E+03 -0.15689332286E+03 -0.26101206305E+03  0.50000000000E+03  0.18039957800E+03 0. -1.
</event>
<event>
 4   0  0.7366543E-04  0.2236068E+02  0.7957747E-01  0.1516063E+00
      -11   -1    0    0    0    0  0.00000000000E+00  0.00000000000E+00  0.50000000000E+03  0.50000000000E+03  0.00000000000E+00 0.  1.
       11   -1    0    0    0    0 -0.00000000000E+00 -0.00000000000E+00 -0.50000000000E+03  0.50000000000E+03  0.00000000000E+00 0. -1.
  1000024    1    1    2    0    0 -0.32308425070E+03  0.31960550203E+03 -0.10452216166E+03  0.50000000000E+03  0.18039957800E+03 0.  1.
 -1000024    1    1    2    0    0  0.32308425070E+03 -0.31960550203E+03  0.10452216166E+03  0.50000000000E+03  0.18039957800E+03 0. -1.
</event>
<event>
 4   0  0.7366543E-04  0.2236068E+02  0.7957747E-01  0.1516063E+00
      -11   -1    0    0    0    0  0.00000000000E+00  0.00000000000E+00  0.50000000000E+03  0.50000000000E+03  0.00000000000E+00 0.  1.
       11   -1    0    0    0    0 -0.00000000000E+00 -0.00000000000E+00 -0.50000000000E+03  0.50000000000E+03  0.00000000000E+00 0. -1.
  1000024    1    1    2    0    0 -0.21585082608E+03  0.39567085273E+03  0.11962018826E+03  0.50000000000E+03  0.18039957800E+03 0.  1.
 -1000024    1    1    2    0    0  0.21585082608E+03 -0.39567085273E+03 -0.11962018826E+03  0.50000000000E+03  0.18039957800E+03 0. -1.
</event>
<event>
 4   0  0.1092222E-03  0.2236068E+02  0.7957747E-01  0.1516063E+00
      -11   -1    0    0    0    0  0.00000000000E+00  0.00000000000E+00  0.50000000000E+03  0.50000000000E+03  0.00000000000E+00 0.  1.
       11   -1    0    0    0    0 -0.00000000000E+00 -0.00000000000E+00 -0.50000000000E+03  0.50000000000E+03  0.00000000000E+00 0. -1.
  1000024    1    1    2    0    0  0.90364185003E+02 -0.43493867561E+03  0.14184024387E+03  0.50000000000E+03  0.18039957800E+03 0.  1.
 -1000024    1    1    2    0    0 -0.90364185003E+02  0.43493867561E+03 -0.14184024387E+03  0.50000000000E+03  0.18039957800E+03 0. -1.
</event>
<event>
 4   0  0.1092222E-03  0.2236068E+02  0.7957747E-01  0.1516063E+00
      -11   -1    0    0    0    0  0.00000000000E+00  0.00000000000E+00  0.50000000000E+03  0.50000000000E+03  0.00000000000E+00 0.  1.
       11   -1    0    0    0    0 -0.00000000000E+00 -0.00000000000E+00 -0.50000000000E+03  0.50000000000E+03  0.00000000000E+00 0. -1.
  1000024    1    1    2    0    0  0.31611282603E+03  0.23539687710E+03  0.24923279024E+03  0.50000000000E+03  0.18039957800E+03 0. -1.
 -1000024    1    1    2    0    0 -0.31611282603E+03 -0.23539687710E+03 -0.24923279024E+03  0.50000000000E+03  0.18039957800E+03 0.  1.
</event>
<event>
 4   0  0.1092222E-03  0.2236068E+02  0.7957747E-01  0.1516063E+00
      -11   -1    0    0    0    0  0.00000000000E+00  0.00000000000E+00  0.50000000000E+03  0.50000000000E+03  0.00000000000E+00 0.  1.
       11   -1    0    0    0    0 -0.00000000000E+00 -0.00000000000E+00 -0.50000000000E+03  0.50000000000E+03  0.00000000000E+00 0. -1.
  1000024    1    1    2    0    0 -0.10504030827E+03  0.14363076306E+03  0.43103680794E+03  0.50000000000E+03  0.18039957800E+03 0.  1.
 -1000024    1    1    2    0    0  0.10504030827E+03 -0.14363076306E+03 -0.43103680794E+03  0.50000000000E+03  0.18039957800E+03 0.  1.
</event>
<event>
 4   0  0.6712789E-04  0.2236068E+02  0.7957747E-01  0.1516063E+00
      -11   -1    0    0    0    0  0.00000000000E+00  0.00000000000E+00  0.50000000000E+03  0.50000000000E+03  0.00000000000E+00 0.  1.
       11   -1    0    0    0    0 -0.00000000000E+00 -0.00000000000E+00 -0.50000000000E+03  0.50000000000E+03  0.00000000000E+00 0. -1.
  1000024    1    1    2    0    0 -0.44770555357E+03 -0.96769017250E+02  0.87472777806E+02  0.50000000000E+03  0.18039957800E+03 0. -1.
 -1000024    1    1    2    0    0  0.44770555357E+03  0.96769017250E+02 -0.87472777806E+02  0.50000000000E+03  0.18039957800E+03 0.  1.
</event>
<event>
 4   0  0.1092222E-03  0.2236068E+02  0.7957747E-01  0.1516063E+00
      -11   -1    0    0    0    0  0.00000000000E+00  0.00000000000E+00  0.50000000000E+03  0.50000000000E+03  0.00000000000E+00 0.  1.
       11   -1    0    0    0    0 -0.00000000000E+00 -0.00000000000E+00 -0.50000000000E+03  0.50000000000E+03  0.00000000000E+00 0. -1.
  1000024    1    1    2    0    0  0.29750910082E+03  0.42770473177E+02  0.35653192537E+03  0.50000000000E+03  0.18039957800E+03 0. -1.
 -1000024    1    1    2    0    0 -0.29750910082E+03 -0.42770473177E+02 -0.35653192537E+03  0.50000000000E+03  0.18039957800E+03 0.  1.
</event>
<event>
 4   0  0.1092222E-03  0.2236068E+02  0.7957747E-01  0.1516063E+00
      -11   -1    0    0    0    0  0.00000000000E+00  0.00000000000E+00  0.50000000000E+03  0.50000000000E+03  0.00000000000E+00 0.  1.
       11   -1    0    0    0    0 -0.00000000000E+00 -0.00000000000E+00 -0.50000000000E+03  0.50000000000E+03  0.00000000000E+00 0. -1.
  1000024    1    1    2    0    0  0.35394781220E+03 -0.13781669727E+03  0.27052448402E+03  0.50000000000E+03  0.18039957800E+03 0.  1.
 -1000024    1    1    2    0    0 -0.35394781220E+03  0.13781669727E+03 -0.27052448402E+03  0.50000000000E+03  0.18039957800E+03 0. -1.
</event>
<event>
 4   0  0.1092222E-03  0.2236068E+02  0.7957747E-01  0.1516063E+00
      -11   -1    0    0    0    0  0.00000000000E+00  0.00000000000E+00  0.50000000000E+03  0.50000000000E+03  0.00000000000E+00 0.  1.
       11   -1    0    0    0    0 -0.00000000000E+00 -0.00000000000E+00 -0.50000000000E+03  0.50000000000E+03  0.00000000000E+00 0. -1.
  1000024    1    1    2    0    0  0.17788147756E+03  0.29054556480E+03  0.31842965781E+03  0.50000000000E+03  0.18039957800E+03 0. -1.
 -1000024    1    1    2    0    0 -0.17788147756E+03 -0.29054556480E+03 -0.31842965781E+03  0.50000000000E+03  0.18039957800E+03 0.  1.
</event>
<event>
 4   0  0.7366543E-04  0.2236068E+02  0.7957747E-01  0.1516063E+00
      -11   -1    0    0    0    0  0.00000000000E+00  0.00000000000E+00  0.50000000000E+03  0.50000000000E+03  0.00000000000E+00 0.  1.
       11   -1    0    0    0    0 -0.00000000000E+00 -0.00000000000E+00 -0.50000000000E+03  0.50000000000E+03  0.00000000000E+00 0. -1.
  1000024    1    1    2    0    0  0.84100576071E+02  0.15983039813E+03  0.42992712080E+03  0.50000000000E+03  0.18039957800E+03 0.  1.
 -1000024    1    1    2    0    0 -0.84100576071E+02 -0.15983039813E+03 -0.42992712080E+03  0.50000000000E+03  0.18039957800E+03 0. -1.
</event>
<event>
 4   0  0.1092222E-03  0.2236068E+02  0.7957747E-01  0.1516063E+00
      -11   -1    0    0    0    0  0.00000000000E+00  0.00000000000E+00  0.50000000000E+03  0.50000000000E+03  0.00000000000E+00 0.  1.
       11   -1    0    0    0    0 -0.00000000000E+00 -0.00000000000E+00 -0.50000000000E+03  0.50000000000E+03  0.00000000000E+00 0. -1.
  1000024    1    1    2    0    0  0.27579133258E+03 -0.15171011246E+03  0.34406274850E+03  0.50000000000E+03  0.18039957800E+03 0.  1.
 -1000024    1    1    2    0    0 -0.27579133258E+03  0.15171011246E+03 -0.34406274850E+03  0.50000000000E+03  0.18039957800E+03 0. -1.
</event>
<event>
 4   0  0.6712789E-04  0.2236068E+02  0.7957747E-01  0.1516063E+00
      -11   -1    0    0    0    0  0.00000000000E+00  0.00000000000E+00  0.50000000000E+03  0.50000000000E+03  0.00000000000E+00 0.  1.
       11   -1    0    0    0    0 -0.00000000000E+00 -0.00000000000E+00 -0.50000000000E+03  0.50000000000E+03  0.00000000000E+00 0. -1.
  1000024    1    1    2    0    0 -0.20183399153E+03  0.19324642551E+03  0.37332941372E+03  0.50000000000E+03  0.18039957800E+03 0.  1.
 -1000024    1    1    2    0    0  0.20183399153E+03 -0.19324642551E+03 -0.37332941372E+03  0.50000000000E+03  0.18039957800E+03 0. -1.
</event>
<event>
 4   0  0.1092222E-03  0.2236068E+02  0.7957747E-01  0.1516063E+00
      -11   -1    0    0    0    0  0.00000000000E+00  0.00000000000E+00  0.50000000000E+03  0.50000000000E+03  0.00000000000E+00 0.  1.
       11   -1    0    0    0    0 -0.00000000000E+00 -0.00000000000E+00 -0.50000000000E+03  0.50000000000E+03  0.00000000000E+00 0. -1.
  1000024    1    1    2    0    0 -0.20088066518E+03 -0.38833391272E+03  0.16217189289E+03  0.50000000000E+03  0.18039957800E+03 0. -1.
 -1000024    1    1    2    0    0  0.20088066518E+03  0.38833391272E+03 -0.16217189289E+03  0.50000000000E+03  0.18039957800E+03 0.  1.
</event>
<event>
 4   0  0.1092222E-03  0.2236068E+02  0.7957747E-01  0.1516063E+00
      -11   -1    0    0    0    0  0.00000000000E+00  0.00000000000E+00  0.50000000000E+03  0.50000000000E+03  0.00000000000E+00 0.  1.
       11   -1    0    0    0    0 -0.00000000000E+00 -0.00000000000E+00 -0.50000000000E+03  0.50000000000E+03  0.00000000000E+00 0. -1.
  1000024    1    1    2    0    0 -0.23822488820E+03  0.79671602875E+02  0.39288335494E+03  0.50000000000E+03  0.18039957800E+03 0.  1.
 -1000024    1    1    2    0    0  0.23822488820E+03 -0.79671602875E+02 -0.39288335494E+03  0.50000000000E+03  0.18039957800E+03 0.  1.
</event>
<event>
 4   0  0.6712789E-04  0.2236068E+02  0.7957747E-01  0.1516063E+00
      -11   -1    0    0    0    0  0.00000000000E+00  0.00000000000E+00  0.50000000000E+03  0.50000000000E+03  0.00000000000E+00 0.  1.
       11   -1    0    0    0    0 -0.00000000000E+00 -0.00000000000E+00 -0.50000000000E+03  0.50000000000E+03  0.00000000000E+00 0. -1.
  1000024    1    1    2    0    0  0.57270760856E+02  0.42340187730E+03  0.18683389015E+03  0.50000000000E+03  0.18039957800E+03 0.  1.
 -1000024    1    1    2    0    0 -0.57270760856E+02 -0.42340187730E+03 -0.18683389015E+03  0.50000000000E+03  0.18039957800E+03 0.  1.
</event>
<event>
 4   0  0.1092222E-03  0.2236068E+02  0.7957747E-01  0.1516063E+00
      -11   -1    0    0    0    0  0.00000000000E+00  0.00000000000E+00  0.50000000000E+03  0.50000000000E+03  0.00000000000E+00 0.  1.
       11   -1    0    0    0    0 -0.00000000000E+00 -0.00000000000E+00 -0.50000000000E+03  0.50000000000E+03  0.00000000000E+00 0. -1.
  1000024    1    1    2    0    0 -0.41406100120E+03  0.21331267899E+03 -0.22520668846E+02  0.50000000000E+03  0.18039957800E+03 0.  1.
 -1000024    1    1    2    0    0  0.41406100120E+03 -0.21331267899E+03  0.22520668846E+02  0.50000000000E+03  0.18039957800E+03 0. -1.
</event>
<event>
 4   0  0.6712789E-04  0.2236068E+02  0.7957747E-01  0.1516063E+00
      -11   -1    0    0    0    0  0.00000000000E+00  0.00000000000E+00  0.50000000000E+03  0.50000000000E+03  0.00000000000E+00 0.  1.
       11   -1    0    0    0    0 -0.00000000000E+00 -0.00000000000E+00 -0.50000000000E+03  0.50000000000E+03  0.00000000000E+00 0. -1.
  1000024    1    1    2    0    0 -0.34148440332E+03  0.19133704370E+03  0.25344532005E+03  0.50000000000E+03  0.18039957800E+03 0.  1.
 -1000024    1    1    2    0    0  0.34148440332E+03 -0.19133704370E+03 -0.25344532005E+03  0.50000000000E+03  0.18039957800E+03 0. -1.
</event>
<event>
 4   0  0.6712789E-04  0.2236068E+02  0.7957747E-01  0.1516063E+00
      -11   -1    0    0    0    0  0.00000000000E+00  0.00000000000E+00  0.50000000000E+03  0.50000000000E+03  0.00000000000E+00 0.  1.
       11   -1    0    0    0    0 -0.00000000000E+00 -0.00000000000E+00 -0.50000000000E+03  0.50000000000E+03  0.00000000000E+00 0. -1.
  1000024    1    1    2    0    0  0.22561920043E+03  0.35650421915E+03 -0.19863713243E+03  0.50000000000E+03  0.18039957800E+03 0.  1.
 -1000024    1    1    2    0    0 -0.22561920043E+03 -0.35650421915E+03  0.19863713243E+03  0.50000000000E+03  0.18039957800E+03 0. -1.
</event>
<event>
 4   0  0.6712789E-04  0.2236068E+02  0.7957747E-01  0.1516063E+00
      -11   -1    0    0    0    0  0.00000000000E+00  0.00000000000E+00  0.50000000000E+03  0.50000000000E+03  0.00000000000E+00 0.  1.
       11   -1    0    0    0    0 -0.00000000000E+00 -0.00000000000E+00 -0.50000000000E+03  0.50000000000E+03  0.00000000000E+00 0. -1.
  1000024    1    1    2    0    0  0.10887940368E+03  0.38124274197E+03 -0.24546942662E+03  0.50000000000E+03  0.18039957800E+03 0. -1.
 -1000024    1    1    2    0    0 -0.10887940368E+03 -0.38124274197E+03  0.24546942662E+03  0.50000000000E+03  0.18039957800E+03 0.  1.
</event>
<event>
 4   0  0.6712789E-04  0.2236068E+02  0.7957747E-01  0.1516063E+00
      -11   -1    0    0    0    0  0.00000000000E+00  0.00000000000E+00  0.50000000000E+03  0.50000000000E+03  0.00000000000E+00 0.  1.
       11   -1    0    0    0    0 -0.00000000000E+00 -0.00000000000E+00 -0.50000000000E+03  0.50000000000E+03  0.00000000000E+00 0. -1.
  1000024    1    1    2    0    0 -0.58878494651E+02  0.17021031627E+03  0.43013691234E+03  0.50000000000E+03  0.18039957800E+03 0.  1.
 -1000024    1    1    2    0    0  0.58878494651E+02 -0.17021031627E+03 -0.43013691234E+03  0.50000000000E+03  0.18039957800E+03 0. -1.
</event>
<event>
 4   0  0.1092222E-03  0.2236068E+02  0.7957747E-01  0.1516063E+00
      -11   -1    0    0    0    0  0.00000000000E+00  0.00000000000E+00  0.50000000000E+03  0.50000000000E+03  0.00000000000E+00 0.  1.
       11   -1    0    0    0    0 -0.00000000000E+00 -0.00000000000E+00 -0.50000000000E+03  0.50000000000E+03  0.00000000000E+00 0. -1.
  1000024    1    1    2    0    0  0.21438290931E+03 -0.14507884385E+03  0.38787638433E+03  0.50000000000E+03  0.18039957800E+03 0. -1.
 -1000024    1    1    2    0    0 -0.21438290931E+03  0.14507884385E+03 -0.38787638433E+03  0.50000000000E+03  0.18039957800E+03 0.  1.
</event>
<event>
 4   0  0.6712789E-04  0.2236068E+02  0.7957747E-01  0.1516063E+00
      -11   -1    0    0    0    0  0.00000000000E+00  0.00000000000E+00  0.50000000000E+03  0.50000000000E+03  0.00000000000E+00 0.  1.
       11   -1    0    0    0    0 -0.00000000000E+00 -0.00000000000E+00 -0.50000000000E+03  0.50000000000E+03  0.00000000000E+00 0. -1.
  1000024    1    1    2    0    0 -0.16652756976E+03 -0.39904947289E+03  0.17459690421E+03  0.50000000000E+03  0.18039957800E+03 0.  1.
 -1000024    1    1    2    0    0  0.16652756976E+03  0.39904947289E+03 -0.17459690421E+03  0.50000000000E+03  0.18039957800E+03 0. -1.
</event>
<event>
 4   0  0.1092222E-03  0.2236068E+02  0.7957747E-01  0.1516063E+00
      -11   -1    0    0    0    0  0.00000000000E+00  0.00000000000E+00  0.50000000000E+03  0.50000000000E+03  0.00000000000E+00 0.  1.
       11   -1    0    0    0    0 -0.00000000000E+00 -0.00000000000E+00 -0.50000000000E+03  0.50000000000E+03  0.00000000000E+00 0. -1.
  1000024    1    1    2    0    0  0.34939642905E+02 -0.36744104075E+03  0.28499525466E+03  0.50000000000E+03  0.18039957800E+03 0.  1.
 -1000024    1    1    2    0    0 -0.34939642905E+02  0.36744104075E+03 -0.28499525466E+03  0.50000000000E+03  0.18039957800E+03 0. -1.
</event>
<event>
 4   0  0.7366543E-04  0.2236068E+02  0.7957747E-01  0.1516063E+00
      -11   -1    0    0    0    0  0.00000000000E+00  0.00000000000E+00  0.50000000000E+03  0.50000000000E+03  0.00000000000E+00 0.  1.
       11   -1    0    0    0    0 -0.00000000000E+00 -0.00000000000E+00 -0.50000000000E+03  0.50000000000E+03  0.00000000000E+00 0. -1.
  1000024    1    1    2    0    0  0.10792433357E+03 -0.44337822262E+03  0.96042085512E+02  0.50000000000E+03  0.18039957800E+03 0. -1.
 -1000024    1    1    2    0    0 -0.10792433357E+03  0.44337822262E+03 -0.96042085512E+02  0.50000000000E+03  0.18039957800E+03 0.  1.
</event>
<event>
 4   0  0.6712789E-04  0.2236068E+02  0.7957747E-01  0.1516063E+00
      -11   -1    0    0    0    0  0.00000000000E+00  0.00000000000E+00  0.50000000000E+03  0.50000000000E+03  0.00000000000E+00 0.  1.
       11   -1    0    0    0    0 -0.00000000000E+00 -0.00000000000E+00 -0.50000000000E+03  0.50000000000E+03  0.00000000000E+00 0. -1.
  1000024    1    1    2    0    0 -0.53960746017E+02  0.13934096690E+03  0.44173331897E+03  0.50000000000E+03  0.18039957800E+03 0. -1.
 -1000024    1    1    2    0    0  0.53960746017E+02 -0.13934096690E+03 -0.44173331897E+03  0.50000000000E+03  0.18039957800E+03 0. -1.
</event>
<event>
 4   0  0.1092222E-03  0.2236068E+02  0.7957747E-01  0.1516063E+00
      -11   -1    0    0    0    0  0.00000000000E+00  0.00000000000E+00  0.50000000000E+03  0.50000000000E+03  0.00000000000E+00 0.  1.
       11   -1    0    0    0    0 -0.00000000000E+00 -0.00000000000E+00 -0.50000000000E+03  0.50000000000E+03  0.00000000000E+00 0. -1.
  1000024    1    1    2    0    0 -0.26974773756E+03  0.37567437777E+03  0.59673379537E+02  0.50000000000E+03  0.18039957800E+03 0.  1.
 -1000024    1    1    2    0    0  0.26974773756E+03 -0.37567437777E+03 -0.59673379537E+02  0.50000000000E+03  0.18039957800E+03 0. -1.
</event>
<event>
 4   0  0.1092222E-03  0.2236068E+02  0.7957747E-01  0.1516063E+00
      -11   -1    0    0    0    0  0.00000000000E+00  0.00000000000E+00  0.50000000000E+03  0.50000000000E+03  0.00000000000E+00 0.  1.
       11   -1    0    0    0    0 -0.00000000000E+00 -0.00000000000E+00 -0.50000000000E+03  0.50000000000E+03  0.00000000000E+00 0. -1.
  1000024    1    1    2    0    0  0.75495724882E+02  0.40531217067E+03  0.21789546138E+03  0.50000000000E+03  0.18039957800E+03 0. -1.
 -1000024    1    1    2    0    0 -0.75495724882E+02 -0.40531217067E+03 -0.21789546138E+03  0.50000000000E+03  0.18039957800E+03 0.  1.
</event>
<event>
 4   0  0.6712789E-04  0.2236068E+02  0.7957747E-01  0.1516063E+00
      -11   -1    0    0    0    0  0.00000000000E+00  0.00000000000E+00  0.50000000000E+03  0.50000000000E+03  0.00000000000E+00 0.  1.
       11   -1    0    0    0    0 -0.00000000000E+00 -0.00000000000E+00 -0.50000000000E+03  0.50000000000E+03  0.00000000000E+00 0. -1.
  1000024    1    1    2    0    0 -0.24530402973E+03  0.22427805931E+03  0.32707992504E+03  0.50000000000E+03  0.18039957800E+03 0. -1.
 -1000024    1    1    2    0    0  0.24530402973E+03 -0.22427805931E+03 -0.32707992504E+03  0.50000000000E+03  0.18039957800E+03 0.  1.
</event>
<event>
 4   0  0.1092222E-03  0.2236068E+02  0.7957747E-01  0.1516063E+00
      -11   -1    0    0    0    0  0.00000000000E+00  0.00000000000E+00  0.50000000000E+03  0.50000000000E+03  0.00000000000E+00 0.  1.
       11   -1    0    0    0    0 -0.00000000000E+00 -0.00000000000E+00 -0.50000000000E+03  0.50000000000E+03  0.00000000000E+00 0. -1.
  1000024    1    1    2    0    0 -0.27117343558E+03 -0.28571804838E+03  0.24957194739E+03  0.50000000000E+03  0.18039957800E+03 0. -1.
 -1000024    1    1    2    0    0  0.27117343558E+03  0.28571804838E+03 -0.24957194739E+03  0.50000000000E+03  0.18039957800E+03 0.  1.
</event>
<event>
 4   0  0.1092222E-03  0.2236068E+02  0.7957747E-01  0.1516063E+00
      -11   -1    0    0    0    0  0.00000000000E+00  0.00000000000E+00  0.50000000000E+03  0.50000000000E+03  0.00000000000E+00 0.  1.
       11   -1    0    0    0    0 -0.00000000000E+00 -0.00000000000E+00 -0.50000000000E+03  0.50000000000E+03  0.00000000000E+00 0. -1.
  1000024    1    1    2    0    0 -0.12840232458E+03 -0.38763866147E+03  0.22517793728E+03  0.50000000000E+03  0.18039957800E+03 0.  1.
 -1000024    1    1    2    0    0  0.12840232458E+03  0.38763866147E+03 -0.22517793728E+03  0.50000000000E+03  0.18039957800E+03 0. -1.
</event>
<event>
 4   0  0.1092222E-03  0.2236068E+02  0.7957747E-01  0.1516063E+00
      -11   -1    0    0    0    0  0.00000000000E+00  0.00000000000E+00  0.50000000000E+03  0.50000000000E+03  0.00000000000E+00 0.  1.
       11   -1    0    0    0    0 -0.00000000000E+00 -0.00000000000E+00 -0.50000000000E+03  0.50000000000E+03  0.00000000000E+00 0. -1.
  1000024    1    1    2    0    0 -0.56662318901E+02  0.13131518654E+03  0.44384873060E+03  0.50000000000E+03  0.18039957800E+03 0. -1.
 -1000024    1    1    2    0    0  0.56662318901E+02 -0.13131518654E+03 -0.44384873060E+03  0.50000000000E+03  0.18039957800E+03 0. -1.
</event>
<event>
 4   0  0.1092222E-03  0.2236068E+02  0.7957747E-01  0.1516063E+00
      -11   -1    0    0    0    0  0.00000000000E+00  0.00000000000E+00  0.50000000000E+03  0.50000000000E+03  0.00000000000E+00 0.  1.
       11   -1    0    0    0    0 -0.00000000000E+00 -0.00000000000E+00 -0.50000000000E+03  0.50000000000E+03  0.00000000000E+00 0. -1.
  1000024    1    1    2    0    0  0.31880674020E+03 -0.14107167960E+03  0.30970475598E+03  0.50000000000E+03  0.18039957800E+03 0. -1.
 -1000024    1    1    2    0    0 -0.31880674020E+03  0.14107167960E+03 -0.30970475598E+03  0.50000000000E+03  0.18039957800E+03 0.  1.
</event>
<event>
 4   0  0.7366543E-04  0.2236068E+02  0.7957747E-01  0.1516063E+00
      -11   -1    0    0    0    0  0.00000000000E+00  0.00000000000E+00  0.50000000000E+03  0.50000000000E+03  0.00000000000E+00 0.  1.
       11   -1    0    0    0    0 -0.00000000000E+00 -0.00000000000E+00 -0.50000000000E+03  0.50000000000E+03  0.00000000000E+00 0. -1.
  1000024    1    1    2    0    0 -0.57006547898E+02 -0.92654897446E+02  0.45345486626E+03  0.50000000000E+03  0.18039957800E+03 0. -1.
 -1000024    1    1    2    0    0  0.57006547898E+02  0.92654897446E+02 -0.45345486626E+03  0.50000000000E+03  0.18039957800E+03 0. -1.
</event>
<event>
 4   0  0.1092222E-03  0.2236068E+02  0.7957747E-01  0.1516063E+00
      -11   -1    0    0    0    0  0.00000000000E+00  0.00000000000E+00  0.50000000000E+03  0.50000000000E+03  0.00000000000E+00 0.  1.
       11   -1    0    0    0    0 -0.00000000000E+00 -0.00000000000E+00 -0.50000000000E+03  0.50000000000E+03  0.00000000000E+00 0. -1.
  1000024    1    1    2    0    0 -0.79008654797E+02 -0.26038259487E+03  0.37870110776E+03  0.50000000000E+03  0.18039957800E+03 0. -1.
 -1000024    1    1    2    0    0  0.79008654797E+02  0.26038259487E+03 -0.37870110776E+03  0.50000000000E+03  0.18039957800E+03 0.  1.
</event>
<event>
 4   0  0.1092222E-03  0.2236068E+02  0.7957747E-01  0.1516063E+00
      -11   -1    0    0    0    0  0.00000000000E+00  0.00000000000E+00  0.50000000000E+03  0.50000000000E+03  0.00000000000E+00 0.  1.
       11   -1    0    0    0    0 -0.00000000000E+00 -0.00000000000E+00 -0.50000000000E+03  0.50000000000E+03  0.00000000000E+00 0. -1.
  1000024    1    1    2    0    0 -0.16887865893E+03  0.42440571532E+03  0.93892383172E+02  0.50000000000E+03  0.18039957800E+03 0.  1.
 -1000024    1    1    2    0    0  0.16887865893E+03 -0.42440571532E+03 -0.93892383172E+02  0.50000000000E+03  0.18039957800E+03 0. -1.
</event>
<event>
 4   0  0.7366543E-04  0.2236068E+02  0.7957747E-01  0.1516063E+00
      -11   -1    0    0    0    0  0.00000000000E+00  0.00000000000E+00  0.50000000000E+03  0.50000000000E+03  0.00000000000E+00 0.  1.
       11   -1    0    0    0    0 -0.00000000000E+00 -0.00000000000E+00 -0.50000000000E+03  0.50000000000E+03  0.00000000000E+00 0. -1.
  1000024    1    1    2    0    0  0.81122790813E+02 -0.28040581519E+03  0.36365871896E+03  0.50000000000E+03  0.18039957800E+03 0. -1.
 -1000024    1    1    2    0    0 -0.81122790813E+02  0.28040581519E+03 -0.36365871896E+03  0.50000000000E+03  0.18039957800E+03 0.  1.
</event>
<event>
 4   0  0.6712789E-04  0.2236068E+02  0.7957747E-01  0.1516063E+00
      -11   -1    0    0    0    0  0.00000000000E+00  0.00000000000E+00  0.50000000000E+03  0.50000000000E+03  0.00000000000E+00 0.  1.
       11   -1    0    0    0    0 -0.00000000000E+00 -0.00000000000E+00 -0.50000000000E+03  0.50000000000E+03  0.00000000000E+00 0. -1.
  1000024    1    1    2    0    0 -0.32889459359E+03 -0.23797486333E+03 -0.22946089642E+03  0.50000000000E+03  0.18039957800E+03 0. -1.
 -1000024    1    1    2    0    0  0.32889459359E+03  0.23797486333E+03  0.22946089642E+03  0.50000000000E+03  0.18039957800E+03 0.  1.
</event>
<event>
 4   0  0.6712789E-04  0.2236068E+02  0.7957747E-01  0.1516063E+00
      -11   -1    0    0    0    0  0.00000000000E+00  0.00000000000E+00  0.50000000000E+03  0.50000000000E+03  0.00000000000E+00 0.  1.
       11   -1    0    0    0    0 -0.00000000000E+00 -0.00000000000E+00 -0.50000000000E+03  0.50000000000E+03  0.00000000000E+00 0. -1.
  1000024    1    1    2    0    0  0.19604556421E+02  0.31086213763E+03  0.34703945743E+03  0.50000000000E+03  0.18039957800E+03 0.  1.
 -1000024    1    1    2    0    0 -0.19604556421E+02 -0.31086213763E+03 -0.34703945743E+03  0.50000000000E+03  0.18039957800E+03 0. -1.
</event>
<event>
 4   0  0.7366543E-04  0.2236068E+02  0.7957747E-01  0.1516063E+00
      -11   -1    0    0    0    0  0.00000000000E+00  0.00000000000E+00  0.50000000000E+03  0.50000000000E+03  0.00000000000E+00 0.  1.
       11   -1    0    0    0    0 -0.00000000000E+00 -0.00000000000E+00 -0.50000000000E+03  0.50000000000E+03  0.00000000000E+00 0. -1.
  1000024    1    1    2    0    0  0.40166620625E+03 -0.22989553031E+03  0.57169013992E+02  0.50000000000E+03  0.18039957800E+03 0.  1.
 -1000024    1    1    2    0    0 -0.40166620625E+03  0.22989553031E+03 -0.57169013992E+02  0.50000000000E+03  0.18039957800E+03 0. -1.
</event>
<event>
 4   0  0.7366543E-04  0.2236068E+02  0.7957747E-01  0.1516063E+00
      -11   -1    0    0    0    0  0.00000000000E+00  0.00000000000E+00  0.50000000000E+03  0.50000000000E+03  0.00000000000E+00 0.  1.
       11   -1    0    0    0    0 -0.00000000000E+00 -0.00000000000E+00 -0.50000000000E+03  0.50000000000E+03  0.00000000000E+00 0. -1.
  1000024    1    1    2    0    0  0.17090761999E+03 -0.32720059880E+02  0.43263838869E+03  0.50000000000E+03  0.18039957800E+03 0.  1.
 -1000024    1    1    2    0    0 -0.17090761999E+03  0.32720059880E+02 -0.43263838869E+03  0.50000000000E+03  0.18039957800E+03 0.  1.
</event>
<event>
 4   0  0.7366543E-04  0.2236068E+02  0.7957747E-01  0.1516063E+00
      -11   -1    0    0    0    0  0.00000000000E+00  0.00000000000E+00  0.50000000000E+03  0.50000000000E+03  0.00000000000E+00 0.  1.
       11   -1    0    0    0    0 -0.00000000000E+00 -0.00000000000E+00 -0.50000000000E+03  0.50000000000E+03  0.00000000000E+00 0. -1.
  1000024    1    1    2    0    0 -0.43476134136E+03  0.16346381581E+03 -0.41450563828E+02  0.50000000000E+03  0.18039957800E+03 0. -1.
 -1000024    1    1    2    0    0  0.43476134136E+03 -0.16346381581E+03  0.41450563828E+02  0.50000000000E+03  0.18039957800E+03 0.  1.
</event>
<event>
 4   0  0.1092222E-03  0.2236068E+02  0.7957747E-01  0.1516063E+00
      -11   -1    0    0    0    0  0.00000000000E+00  0.00000000000E+00  0.50000000000E+03  0.50000000000E+03  0.00000000000E+00 0.  1.
       11   -1    0    0    0    0 -0.00000000000E+00 -0.00000000000E+00 -0.50000000000E+03  0.50000000000E+03  0.00000000000E+00 0. -1.
  1000024    1    1    2    0    0  0.66864135065E+02  0.14108007232E+03  0.43941050612E+03  0.50000000000E+03  0.18039957800E+03 0. -1.
 -1000024    1    1    2    0    0 -0.66864135065E+02 -0.14108007232E+03 -0.43941050612E+03  0.50000000000E+03  0.18039957800E+03 0. -1.
</event>
<event>
 4   0  0.1092222E-03  0.2236068E+02  0.7957747E-01  0.1516063E+00
      -11   -1    0    0    0    0  0.00000000000E+00  0.00000000000E+00  0.50000000000E+03  0.50000000000E+03  0.00000000000E+00 0.  1.
       11   -1    0    0    0    0 -0.00000000000E+00 -0.00000000000E+00 -0.50000000000E+03  0.50000000000E+03  0.00000000000E+00 0. -1.
  1000024    1    1    2    0    0  0.19385589715E+03  0.84409579580E+02  0.41563313905E+03  0.50000000000E+03  0.18039957800E+03 0. -1.
 -1000024    1    1    2    0    0 -0.19385589715E+03 -0.84409579580E+02 -0.41563313905E+03  0.50000000000E+03  0.18039957800E+03 0. -1.
</event>
<event>
 4   0  0.6712789E-04  0.2236068E+02  0.7957747E-01  0.1516063E+00
      -11   -1    0    0    0    0  0.00000000000E+00  0.00000000000E+00  0.50000000000E+03  0.50000000000E+03  0.00000000000E+00 0.  1.
       11   -1    0    0    0    0 -0.00000000000E+00 -0.00000000000E+00 -0.50000000000E+03  0.50000000000E+03  0.00000000000E+00 0. -1.
  1000024    1    1    2    0    0 -0.11103116513E+03  0.17340007088E+03  0.41840230407E+03  0.50000000000E+03  0.18039957800E+03 0. -1.
 -1000024    1    1    2    0    0  0.11103116513E+03 -0.17340007088E+03 -0.41840230407E+03  0.50000000000E+03  0.18039957800E+03 0. -1.
</event>
<event>
 4   0  0.1092222E-03  0.2236068E+02  0.7957747E-01  0.1516063E+00
      -11   -1    0    0    0    0  0.00000000000E+00  0.00000000000E+00  0.50000000000E+03  0.50000000000E+03  0.00000000000E+00 0.  1.
       11   -1    0    0    0    0 -0.00000000000E+00 -0.00000000000E+00 -0.50000000000E+03  0.50000000000E+03  0.00000000000E+00 0. -1.
  1000024    1    1    2    0    0  0.15147341580E+03  0.36360357943E+03  0.24960816010E+03  0.50000000000E+03  0.18039957800E+03 0. -1.
 -1000024    1    1    2    0    0 -0.15147341580E+03 -0.36360357943E+03 -0.24960816010E+03  0.50000000000E+03  0.18039957800E+03 0.  1.
</event>
<event>
 4   0  0.6712789E-04  0.2236068E+02  0.7957747E-01  0.1516063E+00
      -11   -1    0    0    0    0  0.00000000000E+00  0.00000000000E+00  0.50000000000E+03  0.50000000000E+03  0.00000000000E+00 0.  1.
       11   -1    0    0    0    0 -0.00000000000E+00 -0.00000000000E+00 -0.50000000000E+03  0.50000000000E+03  0.00000000000E+00 0. -1.
  1000024    1    1    2    0    0  0.33955619152E+03 -0.12027681485E+02  0.31939461476E+03  0.50000000000E+03  0.18039957800E+03 0. -1.
 -1000024    1    1    2    0    0 -0.33955619152E+03  0.12027681485E+02 -0.31939461476E+03  0.50000000000E+03  0.18039957800E+03 0.  1.
</event>
<event>
 4   0  0.7366543E-04  0.2236068E+02  0.7957747E-01  0.1516063E+00
      -11   -1    0    0    0    0  0.00000000000E+00  0.00000000000E+00  0.50000000000E+03  0.50000000000E+03  0.00000000000E+00 0.  1.
       11   -1    0    0    0    0 -0.00000000000E+00 -0.00000000000E+00 -0.50000000000E+03  0.50000000000E+03  0.00000000000E+00 0. -1.
  1000024    1    1    2    0    0  0.27246447401E+03  0.29527084314E+03  0.23671550826E+03  0.50000000000E+03  0.18039957800E+03 0.  1.
 -1000024    1    1    2    0    0 -0.27246447401E+03 -0.29527084314E+03 -0.23671550826E+03  0.50000000000E+03  0.18039957800E+03 0. -1.
</event>
<event>
 4   0  0.1092222E-03  0.2236068E+02  0.7957747E-01  0.1516063E+00
      -11   -1    0    0    0    0  0.00000000000E+00  0.00000000000E+00  0.50000000000E+03  0.50000000000E+03  0.00000000000E+00 0.  1.
       11   -1    0    0    0    0 -0.00000000000E+00 -0.00000000000E+00 -0.50000000000E+03  0.50000000000E+03  0.00000000000E+00 0. -1.
  1000024    1    1    2    0    0  0.17567385200E+03  0.35648135261E+03  0.24395847029E+03  0.50000000000E+03  0.18039957800E+03 0.  1.
 -1000024    1    1    2    0    0 -0.17567385200E+03 -0.35648135261E+03 -0.24395847029E+03  0.50000000000E+03  0.18039957800E+03 0. -1.
</event>
<event>
 4   0  0.7366543E-04  0.2236068E+02  0.7957747E-01  0.1516063E+00
      -11   -1    0    0    0    0  0.00000000000E+00  0.00000000000E+00  0.50000000000E+03  0.50000000000E+03  0.00000000000E+00 0.  1.
       11   -1    0    0    0    0 -0.00000000000E+00 -0.00000000000E+00 -0.50000000000E+03  0.50000000000E+03  0.00000000000E+00 0. -1.
  1000024    1    1    2    0    0  0.82682611362E+02 -0.27693094062E+03  0.36596288359E+03  0.50000000000E+03  0.18039957800E+03 0.  1.
 -1000024    1    1    2    0    0 -0.82682611362E+02  0.27693094062E+03 -0.36596288359E+03  0.50000000000E+03  0.18039957800E+03 0. -1.
</event>
<event>
 4   0  0.1092222E-03  0.2236068E+02  0.7957747E-01  0.1516063E+00
      -11   -1    0    0    0    0  0.00000000000E+00  0.00000000000E+00  0.50000000000E+03  0.50000000000E+03  0.00000000000E+00 0.  1.
       11   -1    0    0    0    0 -0.00000000000E+00 -0.00000000000E+00 -0.50000000000E+03  0.50000000000E+03  0.00000000000E+00 0. -1.
  1000024    1    1    2    0    0  0.34810641964E+03 -0.30718829742E+03 -0.43740859496E+02  0.50000000000E+03  0.18039957800E+03 0. -1.
 -1000024    1    1    2    0    0 -0.34810641964E+03  0.30718829742E+03  0.43740859496E+02  0.50000000000E+03  0.18039957800E+03 0.  1.
</event>
<event>
 4   0  0.7366543E-04  0.2236068E+02  0.7957747E-01  0.1516063E+00
      -11   -1    0    0    0    0  0.00000000000E+00  0.00000000000E+00  0.50000000000E+03  0.50000000000E+03  0.00000000000E+00 0.  1.
       11   -1    0    0    0    0 -0.00000000000E+00 -0.00000000000E+00 -0.50000000000E+03  0.50000000000E+03  0.00000000000E+00 0. -1.
  1000024    1    1    2    0    0  0.34733859625E+03 -0.17926864026E+03  0.25431210437E+03  0.50000000000E+03  0.18039957800E+03 0. -1.
 -1000024    1    1    2    0    0 -0.34733859625E+03  0.17926864026E+03 -0.25431210437E+03  0.50000000000E+03  0.18039957800E+03 0.  1.
</event>
<event>
 4   0  0.6712789E-04  0.2236068E+02  0.7957747E-01  0.1516063E+00
      -11   -1    0    0    0    0  0.00000000000E+00  0.00000000000E+00  0.50000000000E+03  0.50000000000E+03  0.00000000000E+00 0.  1.
       11   -1    0    0    0    0 -0.00000000000E+00 -0.00000000000E+00 -0.50000000000E+03  0.50000000000E+03  0.00000000000E+00 0. -1.
  1000024    1    1    2    0    0 -0.12260295547E+03 -0.35452363487E+03  0.27701534233E+03  0.50000000000E+03  0.18039957800E+03 0.  1.
 -1000024    1    1    2    0    0  0.12260295547E+03  0.35452363487E+03 -0.27701534233E+03  0.50000000000E+03  0.18039957800E+03 0. -1.
</event>
<event>
 4   0  0.6712789E-04  0.2236068E+02  0.7957747E-01  0.1516063E+00
      -11   -1    0    0    0    0  0.00000000000E+00  0.00000000000E+00  0.50000000000E+03  0.50000000000E+03  0.00000000000E+00 0.  1.
       11   -1    0    0    0    0 -0.00000000000E+00 -0.00000000000E+00 -0.50000000000E+03  0.50000000000E+03  0.00000000000E+00 0. -1.
  1000024    1    1    2    0    0 -0.18097101557E+03  0.19951692802E+03  0.38065532863E+03  0.50000000000E+03  0.18039957800E+03 0. -1.
 -1000024    1    1    2    0    0  0.18097101557E+03 -0.19951692802E+03 -0.38065532863E+03  0.50000000000E+03  0.18039957800E+03 0.  1.
</event>
<event>
 4   0  0.1092222E-03  0.2236068E+02  0.7957747E-01  0.1516063E+00
      -11   -1    0    0    0    0  0.00000000000E+00  0.00000000000E+00  0.50000000000E+03  0.50000000000E+03  0.00000000000E+00 0.  1.
       11   -1    0    0    0    0 -0.00000000000E+00 -0.00000000000E+00 -0.50000000000E+03  0.50000000000E+03  0.00000000000E+00 0. -1.
  1000024    1    1    2    0    0  0.34955137073E+03 -0.26698603608E+03  0.15488152896E+03  0.50000000000E+03  0.18039957800E+03 0.  1.
 -1000024    1    1    2    0    0 -0.34955137073E+03  0.26698603608E+03 -0.15488152896E+03  0.50000000000E+03  0.18039957800E+03 0. -1.
</event>
<event>
 4   0  0.1092222E-03  0.2236068E+02  0.7957747E-01  0.1516063E+00
      -11   -1    0    0    0    0  0.00000000000E+00  0.00000000000E+00  0.50000000000E+03  0.50000000000E+03  0.00000000000E+00 0.  1.
       11   -1    0    0    0    0 -0.00000000000E+00 -0.00000000000E+00 -0.50000000000E+03  0.50000000000E+03  0.00000000000E+00 0. -1.
  1000024    1    1    2    0    0  0.27521002757E+03  0.24255363080E+03  0.28789437154E+03  0.50000000000E+03  0.18039957800E+03 0.  1.
 -1000024    1    1    2    0    0 -0.27521002757E+03 -0.24255363080E+03 -0.28789437154E+03  0.50000000000E+03  0.18039957800E+03 0. -1.
</event>
<event>
 4   0  0.1092222E-03  0.2236068E+02  0.7957747E-01  0.1516063E+00
      -11   -1    0    0    0    0  0.00000000000E+00  0.00000000000E+00  0.50000000000E+03  0.50000000000E+03  0.00000000000E+00 0.  1.
       11   -1    0    0    0    0 -0.00000000000E+00 -0.00000000000E+00 -0.50000000000E+03  0.50000000000E+03  0.00000000000E+00 0. -1.
  1000024    1    1    2    0    0 -0.82094270557E+02  0.45308937431E+03  0.73665065563E+02  0.50000000000E+03  0.18039957800E+03 0.  1.
 -1000024    1    1    2    0    0  0.82094270557E+02 -0.45308937431E+03 -0.73665065563E+02  0.50000000000E+03  0.18039957800E+03 0. -1.
</event>
<event>
 4   0  0.6712789E-04  0.2236068E+02  0.7957747E-01  0.1516063E+00
      -11   -1    0    0    0    0  0.00000000000E+00  0.00000000000E+00  0.50000000000E+03  0.50000000000E+03  0.00000000000E+00 0.  1.
       11   -1    0    0    0    0 -0.00000000000E+00 -0.00000000000E+00 -0.50000000000E+03  0.50000000000E+03  0.00000000000E+00 0. -1.
  1000024    1    1    2    0    0 -0.20143417183E+03 -0.38433593347E+03 -0.17078102038E+03  0.50000000000E+03  0.18039957800E+03 0.  1.
 -1000024    1    1    2    0    0  0.20143417183E+03  0.38433593347E+03  0.17078102038E+03  0.50000000000E+03  0.18039957800E+03 0. -1.
</event>
<event>
 4   0  0.7366543E-04  0.2236068E+02  0.7957747E-01  0.1516063E+00
      -11   -1    0    0    0    0  0.00000000000E+00  0.00000000000E+00  0.50000000000E+03  0.50000000000E+03  0.00000000000E+00 0.  1.
       11   -1    0    0    0    0 -0.00000000000E+00 -0.00000000000E+00 -0.50000000000E+03  0.50000000000E+03  0.00000000000E+00 0. -1.
  1000024    1    1    2    0    0  0.42639072374E+03  0.15889364852E+03  0.10197917153E+03  0.50000000000E+03  0.18039957800E+03 0. -1.
 -1000024    1    1    2    0    0 -0.42639072374E+03 -0.15889364852E+03 -0.10197917153E+03  0.50000000000E+03  0.18039957800E+03 0.  1.
</event>
<event>
 4   0  0.1092222E-03  0.2236068E+02  0.7957747E-01  0.1516063E+00
      -11   -1    0    0    0    0  0.00000000000E+00  0.00000000000E+00  0.50000000000E+03  0.50000000000E+03  0.00000000000E+00 0.  1.
       11   -1    0    0    0    0 -0.00000000000E+00 -0.00000000000E+00 -0.50000000000E+03  0.50000000000E+03  0.00000000000E+00 0. -1.
  1000024    1    1    2    0    0 -0.27292748923E+03  0.36282422830E+03 -0.10641972203E+03  0.50000000000E+03  0.18039957800E+03 0.  1.
 -1000024    1    1    2    0    0  0.27292748923E+03 -0.36282422830E+03  0.10641972203E+03  0.50000000000E+03  0.18039957800E+03 0. -1.
</event>
<event>
 4   0  0.6712789E-04  0.2236068E+02  0.7957747E-01  0.1516063E+00
      -11   -1    0    0    0    0  0.00000000000E+00  0.00000000000E+00  0.50000000000E+03  0.50000000000E+03  0.00000000000E+00 0.  1.
       11   -1    0    0    0    0 -0.00000000000E+00 -0.00000000000E+00 -0.50000000000E+03  0.50000000000E+03  0.00000000000E+00 0. -1.
  1000024    1    1    2    0    0  0.43672140176E+03  0.59596723537E+02  0.15224532850E+03  0.50000000000E+03  0.18039957800E+03 0.  1.
 -1000024    1    1    2    0    0 -0.43672140176E+03 -0.59596723537E+02 -0.15224532850E+03  0.50000000000E+03  0.18039957800E+03 0. -1.
</event>
<event>
 4   0  0.1092222E-03  0.2236068E+02  0.7957747E-01  0.1516063E+00
      -11   -1    0    0    0    0  0.00000000000E+00  0.00000000000E+00  0.50000000000E+03  0.50000000000E+03  0.00000000000E+00 0.  1.
       11   -1    0    0    0    0 -0.00000000000E+00 -0.00000000000E+00 -0.50000000000E+03  0.50000000000E+03  0.00000000000E+00 0. -1.
  1000024    1    1    2    0    0  0.36440743078E+03 -0.16738978509E+03 -0.23799974054E+03  0.50000000000E+03  0.18039957800E+03 0. -1.
 -1000024    1    1    2    0    0 -0.36440743078E+03  0.16738978509E+03  0.23799974054E+03  0.50000000000E+03  0.18039957800E+03 0.  1.
</event>
<event>
 4   0  0.7366543E-04  0.2236068E+02  0.7957747E-01  0.1516063E+00
      -11   -1    0    0    0    0  0.00000000000E+00  0.00000000000E+00  0.50000000000E+03  0.50000000000E+03  0.00000000000E+00 0.  1.
       11   -1    0    0    0    0 -0.00000000000E+00 -0.00000000000E+00 -0.50000000000E+03  0.50000000000E+03  0.00000000000E+00 0. -1.
  1000024    1    1    2    0    0  0.66741699213E+02 -0.45808590148E+03 -0.56203600466E+02  0.50000000000E+03  0.18039957800E+03 0. -1.
 -1000024    1    1    2    0    0 -0.66741699213E+02  0.45808590148E+03  0.56203600466E+02  0.50000000000E+03  0.18039957800E+03 0.  1.
</event>
<event>
 4   0  0.1092222E-03  0.2236068E+02  0.7957747E-01  0.1516063E+00
      -11   -1    0    0    0    0  0.00000000000E+00  0.00000000000E+00  0.50000000000E+03  0.50000000000E+03  0.00000000000E+00 0.  1.
       11   -1    0    0    0    0 -0.00000000000E+00 -0.00000000000E+00 -0.50000000000E+03  0.50000000000E+03  0.00000000000E+00 0. -1.
  1000024    1    1    2    0    0  0.14206411511E+03 -0.27750374277E+03  0.34679309711E+03  0.50000000000E+03  0.18039957800E+03 0. -1.
 -1000024    1    1    2    0    0 -0.14206411511E+03  0.27750374277E+03 -0.34679309711E+03  0.50000000000E+03  0.18039957800E+03 0.  1.
</event>
<event>
 4   0  0.1092222E-03  0.2236068E+02  0.7957747E-01  0.1516063E+00
      -11   -1    0    0    0    0  0.00000000000E+00  0.00000000000E+00  0.50000000000E+03  0.50000000000E+03  0.00000000000E+00 0.  1.
       11   -1    0    0    0    0 -0.00000000000E+00 -0.00000000000E+00 -0.50000000000E+03  0.50000000000E+03  0.00000000000E+00 0. -1.
  1000024    1    1    2    0    0  0.45868826506E+03 -0.46246132210E+02  0.70159553958E+02  0.50000000000E+03  0.18039957800E+03 0.  1.
 -1000024    1    1    2    0    0 -0.45868826506E+03  0.46246132210E+02 -0.70159553958E+02  0.50000000000E+03  0.18039957800E+03 0. -1.
</event>
<event>
 4   0  0.1092222E-03  0.2236068E+02  0.7957747E-01  0.1516063E+00
      -11   -1    0    0    0    0  0.00000000000E+00  0.00000000000E+00  0.50000000000E+03  0.50000000000E+03  0.00000000000E+00 0.  1.
       11   -1    0    0    0    0 -0.00000000000E+00 -0.00000000000E+00 -0.50000000000E+03  0.50000000000E+03  0.00000000000E+00 0. -1.
  1000024    1    1    2    0    0  0.45441587799E+03 -0.58836520936E+02  0.86605230168E+02  0.50000000000E+03  0.18039957800E+03 0.  1.
 -1000024    1    1    2    0    0 -0.45441587799E+03  0.58836520936E+02 -0.86605230168E+02  0.50000000000E+03  0.18039957800E+03 0. -1.
</event>
<event>
 4   0  0.7366543E-04  0.2236068E+02  0.7957747E-01  0.1516063E+00
      -11   -1    0    0    0    0  0.00000000000E+00  0.00000000000E+00  0.50000000000E+03  0.50000000000E+03  0.00000000000E+00 0.  1.
       11   -1    0    0    0    0 -0.00000000000E+00 -0.00000000000E+00 -0.50000000000E+03  0.50000000000E+03  0.00000000000E+00 0. -1.
  1000024    1    1    2    0    0  0.53098186089E+02  0.43680619582E+03  0.15439210531E+03  0.50000000000E+03  0.18039957800E+03 0. -1.
 -1000024    1    1    2    0    0 -0.53098186089E+02 -0.43680619582E+03 -0.15439210531E+03  0.50000000000E+03  0.18039957800E+03 0.  1.
</event>
<event>
 4   0  0.1092222E-03  0.2236068E+02  0.7957747E-01  0.1516063E+00
      -11   -1    0    0    0    0  0.00000000000E+00  0.00000000000E+00  0.50000000000E+03  0.50000000000E+03  0.00000000000E+00 0.  1.
       11   -1    0    0    0    0 -0.00000000000E+00 -0.00000000000E+00 -0.50000000000E+03  0.50000000000E+03  0.00000000000E+00 0. -1.
  1000024    1    1    2    0    0 -0.28561400866E+03  0.18142299028E+03  0.32088366882E+03  0.50000000000E+03  0.18039957800E+03 0.  1.
 -1000024    1    1    2    0    0  0.28561400866E+03 -0.18142299028E+03 -0.32088366882E+03  0.50000000000E+03  0.18039957800E+03 0. -1.
</event>
<event>
 4   0  0.1092222E-03  0.2236068E+02  0.7957747E-01  0.1516063E+00
      -11   -1    0    0    0    0  0.00000000000E+00  0.00000000000E+00  0.50000000000E+03  0.50000000000E+03  0.00000000000E+00 0.  1.
       11   -1    0    0    0    0 -0.00000000000E+00 -0.00000000000E+00 -0.50000000000E+03  0.50000000000E+03  0.00000000000E+00 0. -1.
  1000024    1    1    2    0    0  0.36664157958E+03  0.11829882096E+03 -0.26274575799E+03  0.50000000000E+03  0.18039957800E+03 0.  1.
 -1000024    1    1    2    0    0 -0.36664157958E+03 -0.11829882096E+03  0.26274575799E+03  0.50000000000E+03  0.18039957800E+03 0. -1.
</event>
<event>
 4   0  0.1092222E-03  0.2236068E+02  0.7957747E-01  0.1516063E+00
      -11   -1    0    0    0    0  0.00000000000E+00  0.00000000000E+00  0.50000000000E+03  0.50000000000E+03  0.00000000000E+00 0.  1.
       11   -1    0    0    0    0 -0.00000000000E+00 -0.00000000000E+00 -0.50000000000E+03  0.50000000000E+03  0.00000000000E+00 0. -1.
  1000024    1    1    2    0    0 -0.39882384094E+03 -0.30397275689E+02  0.23973222934E+03  0.50000000000E+03  0.18039957800E+03 0.  1.
 -1000024    1    1    2    0    0  0.39882384094E+03  0.30397275689E+02 -0.23973222934E+03  0.50000000000E+03  0.18039957800E+03 0. -1.
</event>
<event>
 4   0  0.7366543E-04  0.2236068E+02  0.7957747E-01  0.1516063E+00
      -11   -1    0    0    0    0  0.00000000000E+00  0.00000000000E+00  0.50000000000E+03  0.50000000000E+03  0.00000000000E+00 0.  1.
       11   -1    0    0    0    0 -0.00000000000E+00 -0.00000000000E+00 -0.50000000000E+03  0.50000000000E+03  0.00000000000E+00 0. -1.
  1000024    1    1    2    0    0 -0.39930651228E+03 -0.22834883277E+03  0.76597076179E+02  0.50000000000E+03  0.18039957800E+03 0. -1.
 -1000024    1    1    2    0    0  0.39930651228E+03  0.22834883277E+03 -0.76597076179E+02  0.50000000000E+03  0.18039957800E+03 0.  1.
</event>
<event>
 4   0  0.1092222E-03  0.2236068E+02  0.7957747E-01  0.1516063E+00
      -11   -1    0    0    0    0  0.00000000000E+00  0.00000000000E+00  0.50000000000E+03  0.50000000000E+03  0.00000000000E+00 0.  1.
       11   -1    0    0    0    0 -0.00000000000E+00 -0.00000000000E+00 -0.50000000000E+03  0.50000000000E+03  0.00000000000E+00 0. -1.
  1000024    1    1    2    0    0 -0.13175519876E+03  0.43502402729E+03  0.10416647992E+03  0.50000000000E+03  0.18039957800E+03 0.  1.
 -1000024    1    1    2    0    0  0.13175519876E+03 -0.43502402729E+03 -0.10416647992E+03  0.50000000000E+03  0.18039957800E+03 0. -1.
</event>
<event>
 4   0  0.1092222E-03  0.2236068E+02  0.7957747E-01  0.1516063E+00
      -11   -1    0    0    0    0  0.00000000000E+00  0.00000000000E+00  0.50000000000E+03  0.50000000000E+03  0.00000000000E+00 0.  1.
       11   -1    0    0    0    0 -0.00000000000E+00 -0.00000000000E+00 -0.50000000000E+03  0.50000000000E+03  0.00000000000E+00 0. -1.
  1000024    1    1    2    0    0  0.37359110017E+03  0.14874475434E+03  0.23613699453E+03  0.50000000000E+03  0.18039957800E+03 0. -1.
 -1000024    1    1    2    0    0 -0.37359110017E+03 -0.14874475434E+03 -0.23613699453E+03  0.50000000000E+03  0.18039957800E+03 0.  1.
</event>
<event>
 4   0  0.1092222E-03  0.2236068E+02  0.7957747E-01  0.1516063E+00
      -11   -1    0    0    0    0  0.00000000000E+00  0.00000000000E+00  0.50000000000E+03  0.50000000000E+03  0.00000000000E+00 0.  1.
       11   -1    0    0    0    0 -0.00000000000E+00 -0.00000000000E+00 -0.50000000000E+03  0.50000000000E+03  0.00000000000E+00 0. -1.
  1000024    1    1    2    0    0  0.14921178994E+03  0.43100140627E+03 -0.97106239724E+02  0.50000000000E+03  0.18039957800E+03 0. -1.
 -1000024    1    1    2    0    0 -0.14921178994E+03 -0.43100140627E+03  0.97106239724E+02  0.50000000000E+03  0.18039957800E+03 0.  1.
</event>
<event>
 4   0  0.6712789E-04  0.2236068E+02  0.7957747E-01  0.1516063E+00
      -11   -1    0    0    0    0  0.00000000000E+00  0.00000000000E+00  0.50000000000E+03  0.50000000000E+03  0.00000000000E+00 0.  1.
       11   -1    0    0    0    0 -0.00000000000E+00 -0.00000000000E+00 -0.50000000000E+03  0.50000000000E+03  0.00000000000E+00 0. -1.
  1000024    1    1    2    0    0 -0.40992031238E+02 -0.41360862634E+03  0.21143214006E+03  0.50000000000E+03  0.18039957800E+03 0. -1.
 -1000024    1    1    2    0    0  0.40992031238E+02  0.41360862634E+03 -0.21143214006E+03  0.50000000000E+03  0.18039957800E+03 0.  1.
</event>
<event>
 4   0  0.1092222E-03  0.2236068E+02  0.7957747E-01  0.1516063E+00
      -11   -1    0    0    0    0  0.00000000000E+00  0.00000000000E+00  0.50000000000E+03  0.50000000000E+03  0.00000000000E+00 0.  1.
       11   -1    0    0    0    0 -0.00000000000E+00 -0.00000000000E+00 -0.50000000000E+03  0.50000000000E+03  0.00000000000E+00 0. -1.
  1000024    1    1    2    0    0  0.22378436164E+03 -0.40665109515E+03  0.44849064110E+02  0.50000000000E+03  0.18039957800E+03 0.  1.
 -1000024    1    1    2    0    0 -0.22378436164E+03  0.40665109515E+03 -0.44849064110E+02  0.50000000000E+03  0.18039957800E+03 0. -1.
</event>
<event>
 4   0  0.1092222E-03  0.2236068E+02  0.7957747E-01  0.1516063E+00
      -11   -1    0    0    0    0  0.00000000000E+00  0.00000000000E+00  0.50000000000E+03  0.50000000000E+03  0.00000000000E+00 0.  1.
       11   -1    0    0    0    0 -0.00000000000E+00 -0.00000000000E+00 -0.50000000000E+03  0.50000000000E+03  0.00000000000E+00 0. -1.
  1000024    1    1    2    0    0  0.35829462116E+03  0.29247008979E+03 -0.59516411893E+02  0.50000000000E+03  0.18039957800E+03 0. -1.
 -1000024    1    1    2    0    0 -0.35829462116E+03 -0.29247008979E+03  0.59516411893E+02  0.50000000000E+03  0.18039957800E+03 0.  1.
</event>
<event>
 4   0  0.1092222E-03  0.2236068E+02  0.7957747E-01  0.1516063E+00
      -11   -1    0    0    0    0  0.00000000000E+00  0.00000000000E+00  0.50000000000E+03  0.50000000000E+03  0.00000000000E+00 0.  1.
       11   -1    0    0    0    0 -0.00000000000E+00 -0.00000000000E+00 -0.50000000000E+03  0.50000000000E+03  0.00000000000E+00 0. -1.
  1000024    1    1    2    0    0  0.70051659739E+02  0.42401551132E+03  0.18099614191E+03  0.50000000000E+03  0.18039957800E+03 0.  1.
 -1000024    1    1    2    0    0 -0.70051659739E+02 -0.42401551132E+03 -0.18099614191E+03  0.50000000000E+03  0.18039957800E+03 0. -1.
</event>
<event>
 4   0  0.6712789E-04  0.2236068E+02  0.7957747E-01  0.1516063E+00
      -11   -1    0    0    0    0  0.00000000000E+00  0.00000000000E+00  0.50000000000E+03  0.50000000000E+03  0.00000000000E+00 0.  1.
       11   -1    0    0    0    0 -0.00000000000E+00 -0.00000000000E+00 -0.50000000000E+03  0.50000000000E+03  0.00000000000E+00 0. -1.
  1000024    1    1    2    0    0 -0.45979563408E+03 -0.33517088763E+01 -0.77670671329E+02  0.50000000000E+03  0.18039957800E+03 0. -1.
 -1000024    1    1    2    0    0  0.45979563408E+03  0.33517088763E+01  0.77670671329E+02  0.50000000000E+03  0.18039957800E+03 0.  1.
</event>
<event>
 4   0  0.1092222E-03  0.2236068E+02  0.7957747E-01  0.1516063E+00
      -11   -1    0    0    0    0  0.00000000000E+00  0.00000000000E+00  0.50000000000E+03  0.50000000000E+03  0.00000000000E+00 0.  1.
       11   -1    0    0    0    0 -0.00000000000E+00 -0.00000000000E+00 -0.50000000000E+03  0.50000000000E+03  0.00000000000E+00 0. -1.
  1000024    1    1    2    0    0 -0.36179711333E+03  0.25970092141E+02  0.29306039541E+03  0.50000000000E+03  0.18039957800E+03 0.  1.
 -1000024    1    1    2    0    0  0.36179711333E+03 -0.25970092141E+02 -0.29306039541E+03  0.50000000000E+03  0.18039957800E+03 0. -1.
</event>
<event>
 4   0  0.1092222E-03  0.2236068E+02  0.7957747E-01  0.1516063E+00
      -11   -1    0    0    0    0  0.00000000000E+00  0.00000000000E+00  0.50000000000E+03  0.50000000000E+03  0.00000000000E+00 0.  1.
       11   -1    0    0    0    0 -0.00000000000E+00 -0.00000000000E+00 -0.50000000000E+03  0.50000000000E+03  0.00000000000E+00 0. -1.
  1000024    1    1    2    0    0 -0.34293619798E+03  0.62064065472E+02  0.30983674435E+03  0.50000000000E+03  0.18039957800E+03 0. -1.
 -1000024    1    1    2    0    0  0.34293619798E+03 -0.62064065472E+02 -0.30983674435E+03  0.50000000000E+03  0.18039957800E+03 0.  1.
</event>
<event>
 4   0  0.1092222E-03  0.2236068E+02  0.7957747E-01  0.1516063E+00
      -11   -1    0    0    0    0  0.00000000000E+00  0.00000000000E+00  0.50000000000E+03  0.50000000000E+03  0.00000000000E+00 0.  1.
       11   -1    0    0    0    0 -0.00000000000E+00 -0.00000000000E+00 -0.50000000000E+03  0.50000000000E+03  0.00000000000E+00 0. -1.
  1000024    1    1    2    0    0  0.33167937205E+03  0.30278095699E+03 -0.12557260248E+03  0.50000000000E+03  0.18039957800E+03 0. -1.
 -1000024    1    1    2    0    0 -0.33167937205E+03 -0.30278095699E+03  0.12557260248E+03  0.50000000000E+03  0.18039957800E+03 0.  1.
</event>
<event>
 4   0  0.7366543E-04  0.2236068E+02  0.7957747E-01  0.1516063E+00
      -11   -1    0    0    0    0  0.00000000000E+00  0.00000000000E+00  0.50000000000E+03  0.50000000000E+03  0.00000000000E+00 0.  1.
       11   -1    0    0    0    0 -0.00000000000E+00 -0.00000000000E+00 -0.50000000000E+03  0.50000000000E+03  0.00000000000E+00 0. -1.
  1000024    1    1    2    0    0  0.14775476397E+03  0.81049033131E+02  0.43480521640E+03  0.50000000000E+03  0.18039957800E+03 0.  1.
 -1000024    1    1    2    0    0 -0.14775476397E+03 -0.81049033131E+02 -0.43480521640E+03  0.50000000000E+03  0.18039957800E+03 0.  1.
</event>
<event>
 4   0  0.1092222E-03  0.2236068E+02  0.7957747E-01  0.1516063E+00
      -11   -1    0    0    0    0  0.00000000000E+00  0.00000000000E+00  0.50000000000E+03  0.50000000000E+03  0.00000000000E+00 0.  1.
       11   -1    0    0    0    0 -0.00000000000E+00 -0.00000000000E+00 -0.50000000000E+03  0.50000000000E+03  0.00000000000E+00 0. -1.
  1000024    1    1    2    0    0  0.33703030489E+03 -0.23724057138E+03  0.21813637279E+03  0.50000000000E+03  0.18039957800E+03 0.  1.
 -1000024    1    1    2    0    0 -0.33703030489E+03  0.23724057138E+03 -0.21813637279E+03  0.50000000000E+03  0.18039957800E+03 0. -1.
</event>
<event>
 4   0  0.1092222E-03  0.2236068E+02  0.7957747E-01  0.1516063E+00
      -11   -1    0    0    0    0  0.00000000000E+00  0.00000000000E+00  0.50000000000E+03  0.50000000000E+03  0.00000000000E+00 0.  1.
       11   -1    0    0    0    0 -0.00000000000E+00 -0.00000000000E+00 -0.50000000000E+03  0.50000000000E+03  0.00000000000E+00 0. -1.
  1000024    1    1    2    0    0 -0.35805645054E+03  0.24347733914E+03  0.17311948420E+03  0.50000000000E+03  0.18039957800E+03 0.  1.
 -1000024    1    1    2    0    0  0.35805645054E+03 -0.24347733914E+03 -0.17311948420E+03  0.50000000000E+03  0.18039957800E+03 0. -1.
</event>
<event>
 4   0  0.6712789E-04  0.2236068E+02  0.7957747E-01  0.1516063E+00
      -11   -1    0    0    0    0  0.00000000000E+00  0.00000000000E+00  0.50000000000E+03  0.50000000000E+03  0.00000000000E+00 0.  1.
       11   -1    0    0    0    0 -0.00000000000E+00 -0.00000000000E+00 -0.50000000000E+03  0.50000000000E+03  0.00000000000E+00 0. -1.
  1000024    1    1    2    0    0 -0.23708636590E+03  0.41879726747E+02  0.39936466525E+03  0.50000000000E+03  0.18039957800E+03 0.  1.
 -1000024    1    1    2    0    0  0.23708636590E+03 -0.41879726747E+02 -0.39936466525E+03  0.50000000000E+03  0.18039957800E+03 0. -1.
</event>
<event>
 4   0  0.6712789E-04  0.2236068E+02  0.7957747E-01  0.1516063E+00
      -11   -1    0    0    0    0  0.00000000000E+00  0.00000000000E+00  0.50000000000E+03  0.50000000000E+03  0.00000000000E+00 0.  1.
       11   -1    0    0    0    0 -0.00000000000E+00 -0.00000000000E+00 -0.50000000000E+03  0.50000000000E+03  0.00000000000E+00 0. -1.
  1000024    1    1    2    0    0 -0.15582571497E+03 -0.17828432360E+03  0.40173254631E+03  0.50000000000E+03  0.18039957800E+03 0. -1.
 -1000024    1    1    2    0    0  0.15582571497E+03  0.17828432360E+03 -0.40173254631E+03  0.50000000000E+03  0.18039957800E+03 0. -1.
</event>
<event>
 4   0  0.6712789E-04  0.2236068E+02  0.7957747E-01  0.1516063E+00
      -11   -1    0    0    0    0  0.00000000000E+00  0.00000000000E+00  0.50000000000E+03  0.50000000000E+03  0.00000000000E+00 0.  1.
       11   -1    0    0    0    0 -0.00000000000E+00 -0.00000000000E+00 -0.50000000000E+03  0.50000000000E+03  0.00000000000E+00 0. -1.
  1000024    1    1    2    0    0  0.72775808809E+02 -0.18818076548E+03  0.42041369318E+03  0.50000000000E+03  0.18039957800E+03 0. -1.
 -1000024    1    1    2    0    0 -0.72775808809E+02  0.18818076548E+03 -0.42041369318E+03  0.50000000000E+03  0.18039957800E+03 0.  1.
</event>
<event>
 4   0  0.6712789E-04  0.2236068E+02  0.7957747E-01  0.1516063E+00
      -11   -1    0    0    0    0  0.00000000000E+00  0.00000000000E+00  0.50000000000E+03  0.50000000000E+03  0.00000000000E+00 0.  1.
       11   -1    0    0    0    0 -0.00000000000E+00 -0.00000000000E+00 -0.50000000000E+03  0.50000000000E+03  0.00000000000E+00 0. -1.
  1000024    1    1    2    0    0 -0.13417186154E+03 -0.37912639349E+03  0.23604466016E+03  0.50000000000E+03  0.18039957800E+03 0.  1.
 -1000024    1    1    2    0    0  0.13417186154E+03  0.37912639349E+03 -0.23604466016E+03  0.50000000000E+03  0.18039957800E+03 0. -1.
</event>
<event>
 4   0  0.1092222E-03  0.2236068E+02  0.7957747E-01  0.1516063E+00
      -11   -1    0    0    0    0  0.00000000000E+00  0.00000000000E+00  0.50000000000E+03  0.50000000000E+03  0.00000000000E+00 0.  1.
       11   -1    0    0    0    0 -0.00000000000E+00 -0.00000000000E+00 -0.50000000000E+03  0.50000000000E+03  0.00000000000E+00 0. -1.
  1000024    1    1    2    0    0  0.46573686072E+03 -0.18671065603E+02 -0.14019990508E+02  0.50000000000E+03  0.18039957800E+03 0. -1.
 -1000024    1    1    2    0    0 -0.46573686072E+03  0.18671065603E+02  0.14019990508E+02  0.50000000000E+03  0.18039957800E+03 0.  1.
</event>
<event>
 4   0  0.7366543E-04  0.2236068E+02  0.7957747E-01  0.1516063E+00
      -11   -1    0    0    0    0  0.00000000000E+00  0.00000000000E+00  0.50000000000E+03  0.50000000000E+03  0.00000000000E+00 0.  1.
       11   -1    0    0    0    0 -0.00000000000E+00 -0.00000000000E+00 -0.50000000000E+03  0.50000000000E+03  0.00000000000E+00 0. -1.
  1000024    1    1    2    0    0 -0.26497440464E+03 -0.33036164304E+03 -0.19520692085E+03  0.50000000000E+03  0.18039957800E+03 0. -1.
 -1000024    1    1    2    0    0  0.26497440464E+03  0.33036164304E+03  0.19520692085E+03  0.50000000000E+03  0.18039957800E+03 0.  1.
</event>
<event>
 4   0  0.7366543E-04  0.2236068E+02  0.7957747E-01  0.1516063E+00
      -11   -1    0    0    0    0  0.00000000000E+00  0.00000000000E+00  0.50000000000E+03  0.50000000000E+03  0.00000000000E+00 0.  1.
       11   -1    0    0    0    0 -0.00000000000E+00 -0.00000000000E+00 -0.50000000000E+03  0.50000000000E+03  0.00000000000E+00 0. -1.
  1000024    1    1    2    0    0  0.10069638022E+03  0.42261299013E+03  0.16945350937E+03  0.50000000000E+03  0.18039957800E+03 0.  1.
 -1000024    1    1    2    0    0 -0.10069638022E+03 -0.42261299013E+03 -0.16945350937E+03  0.50000000000E+03  0.18039957800E+03 0. -1.
</event>
<event>
 4   0  0.7366543E-04  0.2236068E+02  0.7957747E-01  0.1516063E+00
      -11   -1    0    0    0    0  0.00000000000E+00  0.00000000000E+00  0.50000000000E+03  0.50000000000E+03  0.00000000000E+00 0.  1.
       11   -1    0    0    0    0 -0.00000000000E+00 -0.00000000000E+00 -0.50000000000E+03  0.50000000000E+03  0.00000000000E+00 0. -1.
  1000024    1    1    2    0    0 -0.24521393085E+03  0.36628006488E+03 -0.15220063879E+03  0.50000000000E+03  0.18039957800E+03 0. -1.
 -1000024    1    1    2    0    0  0.24521393085E+03 -0.36628006488E+03  0.15220063879E+03  0.50000000000E+03  0.18039957800E+03 0.  1.
</event>
<event>
 4   0  0.6712789E-04  0.2236068E+02  0.7957747E-01  0.1516063E+00
      -11   -1    0    0    0    0  0.00000000000E+00  0.00000000000E+00  0.50000000000E+03  0.50000000000E+03  0.00000000000E+00 0.  1.
       11   -1    0    0    0    0 -0.00000000000E+00 -0.00000000000E+00 -0.50000000000E+03  0.50000000000E+03  0.00000000000E+00 0. -1.
  1000024    1    1    2    0    0 -0.15697124388E+03 -0.38445068548E+03  0.21216430257E+03  0.50000000000E+03  0.18039957800E+03 0. -1.
 -1000024    1    1    2    0    0  0.15697124388E+03  0.38445068548E+03 -0.21216430257E+03  0.50000000000E+03  0.18039957800E+03 0.  1.
</event>
<event>
 4   0  0.6712789E-04  0.2236068E+02  0.7957747E-01  0.1516063E+00
      -11   -1    0    0    0    0  0.00000000000E+00  0.00000000000E+00  0.50000000000E+03  0.50000000000E+03  0.00000000000E+00 0.  1.
       11   -1    0    0    0    0 -0.00000000000E+00 -0.00000000000E+00 -0.50000000000E+03  0.50000000000E+03  0.00000000000E+00 0. -1.
  1000024    1    1    2    0    0 -0.29132656410E+03  0.62181813765E+02  0.35877325339E+03  0.50000000000E+03  0.18039957800E+03 0.  1.
 -1000024    1    1    2    0    0  0.29132656410E+03 -0.62181813765E+02 -0.35877325339E+03  0.50000000000E+03  0.18039957800E+03 0.  1.
</event>
<event>
 4   0  0.1092222E-03  0.2236068E+02  0.7957747E-01  0.1516063E+00
      -11   -1    0    0    0    0  0.00000000000E+00  0.00000000000E+00  0.50000000000E+03  0.50000000000E+03  0.00000000000E+00 0.  1.
       11   -1    0    0    0    0 -0.00000000000E+00 -0.00000000000E+00 -0.50000000000E+03  0.50000000000E+03  0.00000000000E+00 0. -1.
  1000024    1    1    2    0    0 -0.27303068829E+03 -0.19198710162E+03  0.32565501427E+03  0.50000000000E+03  0.18039957800E+03 0. -1.
 -1000024    1    1    2    0    0  0.27303068829E+03  0.19198710162E+03 -0.32565501427E+03  0.50000000000E+03  0.18039957800E+03 0.  1.
</event>
<event>
 4   0  0.1092222E-03  0.2236068E+02  0.7957747E-01  0.1516063E+00
      -11   -1    0    0    0    0  0.00000000000E+00  0.00000000000E+00  0.50000000000E+03  0.50000000000E+03  0.00000000000E+00 0.  1.
       11   -1    0    0    0    0 -0.00000000000E+00 -0.00000000000E+00 -0.50000000000E+03  0.50000000000E+03  0.00000000000E+00 0. -1.
  1000024    1    1    2    0    0 -0.48061484214E+02  0.43350823297E+03  0.16497484033E+03  0.50000000000E+03  0.18039957800E+03 0. -1.
 -1000024    1    1    2    0    0  0.48061484214E+02 -0.43350823297E+03 -0.16497484033E+03  0.50000000000E+03  0.18039957800E+03 0.  1.
</event>
<event>
 4   0  0.1092222E-03  0.2236068E+02  0.7957747E-01  0.1516063E+00
      -11   -1    0    0    0    0  0.00000000000E+00  0.00000000000E+00  0.50000000000E+03  0.50000000000E+03  0.00000000000E+00 0.  1.
       11   -1    0    0    0    0 -0.00000000000E+00 -0.00000000000E+00 -0.50000000000E+03  0.50000000000E+03  0.00000000000E+00 0. -1.
  1000024    1    1    2    0    0  0.24296128738E+03 -0.31832501225E+03  0.23894558306E+03  0.50000000000E+03  0.18039957800E+03 0.  1.
 -1000024    1    1    2    0    0 -0.24296128738E+03  0.31832501225E+03 -0.23894558306E+03  0.50000000000E+03  0.18039957800E+03 0. -1.
</event>
<event>
 4   0  0.7366543E-04  0.2236068E+02  0.7957747E-01  0.1516063E+00
      -11   -1    0    0    0    0  0.00000000000E+00  0.00000000000E+00  0.50000000000E+03  0.50000000000E+03  0.00000000000E+00 0.  1.
       11   -1    0    0    0    0 -0.00000000000E+00 -0.00000000000E+00 -0.50000000000E+03  0.50000000000E+03  0.00000000000E+00 0. -1.
  1000024    1    1    2    0    0  0.31619164110E+03  0.10775947097E+03  0.32537168711E+03  0.50000000000E+03  0.18039957800E+03 0.  1.
 -1000024    1    1    2    0    0 -0.31619164110E+03 -0.10775947097E+03 -0.32537168711E+03  0.50000000000E+03  0.18039957800E+03 0. -1.
</event>
<event>
 4   0  0.6712789E-04  0.2236068E+02  0.7957747E-01  0.1516063E+00
      -11   -1    0    0    0    0  0.00000000000E+00  0.00000000000E+00  0.50000000000E+03  0.50000000000E+03  0.00000000000E+00 0.  1.
       11   -1    0    0    0    0 -0.00000000000E+00 -0.00000000000E+00 -0.50000000000E+03  0.50000000000E+03  0.00000000000E+00 0. -1.
  1000024    1    1    2    0    0  0.38868228511E+03 -0.83766732304E+02 -0.24364976515E+03  0.50000000000E+03  0.18039957800E+03 0.  1.
 -1000024    1    1    2    0    0 -0.38868228511E+03  0.83766732304E+02  0.24364976515E+03  0.50000000000E+03  0.18039957800E+03 0. -1.
</event>
<event>
 4   0  0.1092222E-03  0.2236068E+02  0.7957747E-01  0.1516063E+00
      -11   -1    0    0    0    0  0.00000000000E+00  0.00000000000E+00  0.50000000000E+03  0.50000000000E+03  0.00000000000E+00 0.  1.
       11   -1    0    0    0    0 -0.00000000000E+00 -0.00000000000E+00 -0.50000000000E+03  0.50000000000E+03  0.00000000000E+00 0. -1.
  1000024    1    1    2    0    0 -0.36137320887E+02 -0.34248396497E+03  0.31441186369E+03  0.50000000000E+03  0.18039957800E+03 0.  1.
 -1000024    1    1    2    0    0  0.36137320887E+02  0.34248396497E+03 -0.31441186369E+03  0.50000000000E+03  0.18039957800E+03 0. -1.
</event>
<event>
 4   0  0.1092222E-03  0.2236068E+02  0.7957747E-01  0.1516063E+00
      -11   -1    0    0    0    0  0.00000000000E+00  0.00000000000E+00  0.50000000000E+03  0.50000000000E+03  0.00000000000E+00 0.  1.
       11   -1    0    0    0    0 -0.00000000000E+00 -0.00000000000E+00 -0.50000000000E+03  0.50000000000E+03  0.00000000000E+00 0. -1.
  1000024    1    1    2    0    0 -0.26591065034E+02 -0.44325123924E+03  0.14239819674E+03  0.50000000000E+03  0.18039957800E+03 0. -1.
 -1000024    1    1    2    0    0  0.26591065034E+02  0.44325123924E+03 -0.14239819674E+03  0.50000000000E+03  0.18039957800E+03 0.  1.
</event>
<event>
 4   0  0.1092222E-03  0.2236068E+02  0.7957747E-01  0.1516063E+00
      -11   -1    0    0    0    0  0.00000000000E+00  0.00000000000E+00  0.50000000000E+03  0.50000000000E+03  0.00000000000E+00 0.  1.
       11   -1    0    0    0    0 -0.00000000000E+00 -0.00000000000E+00 -0.50000000000E+03  0.50000000000E+03  0.00000000000E+00 0. -1.
  1000024    1    1    2    0    0  0.37789263321E+03 -0.90050674644E+02  0.25796128783E+03  0.50000000000E+03  0.18039957800E+03 0. -1.
 -1000024    1    1    2    0    0 -0.37789263321E+03  0.90050674644E+02 -0.25796128783E+03  0.50000000000E+03  0.18039957800E+03 0.  1.
</event>
<event>
 4   0  0.1092222E-03  0.2236068E+02  0.7957747E-01  0.1516063E+00
      -11   -1    0    0    0    0  0.00000000000E+00  0.00000000000E+00  0.50000000000E+03  0.50000000000E+03  0.00000000000E+00 0.  1.
       11   -1    0    0    0    0 -0.00000000000E+00 -0.00000000000E+00 -0.50000000000E+03  0.50000000000E+03  0.00000000000E+00 0. -1.
  1000024    1    1    2    0    0  0.14363004717E+03  0.35950540282E+03  0.25996589613E+03  0.50000000000E+03  0.18039957800E+03 0. -1.
 -1000024    1    1    2    0    0 -0.14363004717E+03 -0.35950540282E+03 -0.25996589613E+03  0.50000000000E+03  0.18039957800E+03 0.  1.
</event>
<event>
 4   0  0.6712789E-04  0.2236068E+02  0.7957747E-01  0.1516063E+00
      -11   -1    0    0    0    0  0.00000000000E+00  0.00000000000E+00  0.50000000000E+03  0.50000000000E+03  0.00000000000E+00 0.  1.
       11   -1    0    0    0    0 -0.00000000000E+00 -0.00000000000E+00 -0.50000000000E+03  0.50000000000E+03  0.00000000000E+00 0. -1.
  1000024    1    1    2    0    0 -0.22246552085E+03  0.47704513397E+02  0.40704958383E+03  0.50000000000E+03  0.18039957800E+03 0.  1.
 -1000024    1    1    2    0    0  0.22246552085E+03 -0.47704513397E+02 -0.40704958383E+03  0.50000000000E+03  0.18039957800E+03 0. -1.
</event>
<event>
 4   0  0.7366543E-04  0.2236068E+02  0.7957747E-01  0.1516063E+00
      -11   -1    0    0    0    0  0.00000000000E+00  0.00000000000E+00  0.50000000000E+03  0.50000000000E+03  0.00000000000E+00 0.  1.
       11   -1    0    0    0    0 -0.00000000000E+00 -0.00000000000E+00 -0.50000000000E+03  0.50000000000E+03  0.00000000000E+00 0. -1.
  1000024    1    1    2    0    0  0.37489962929E+02  0.46448073801E+03 -0.17553887277E+02  0.50000000000E+03  0.18039957800E+03 0.  1.
 -1000024    1    1    2    0    0 -0.37489962929E+02 -0.46448073801E+03  0.17553887277E+02  0.50000000000E+03  0.18039957800E+03 0. -1.
</event>
<event>
 4   0  0.1092222E-03  0.2236068E+02  0.7957747E-01  0.1516063E+00
      -11   -1    0    0    0    0  0.00000000000E+00  0.00000000000E+00  0.50000000000E+03  0.50000000000E+03  0.00000000000E+00 0.  1.
       11   -1    0    0    0    0 -0.00000000000E+00 -0.00000000000E+00 -0.50000000000E+03  0.50000000000E+03  0.00000000000E+00 0. -1.
  1000024    1    1    2    0    0  0.91852003217E+02  0.21405164960E+03  0.40398155040E+03  0.50000000000E+03  0.18039957800E+03 0. -1.
 -1000024    1    1    2    0    0 -0.91852003217E+02 -0.21405164960E+03 -0.40398155040E+03  0.50000000000E+03  0.18039957800E+03 0.  1.
</event>
<event>
 4   0  0.6712789E-04  0.2236068E+02  0.7957747E-01  0.1516063E+00
      -11   -1    0    0    0    0  0.00000000000E+00  0.00000000000E+00  0.50000000000E+03  0.50000000000E+03  0.00000000000E+00 0.  1.
       11   -1    0    0    0    0 -0.00000000000E+00 -0.00000000000E+00 -0.50000000000E+03  0.50000000000E+03  0.00000000000E+00 0. -1.
  1000024    1    1    2    0    0  0.27609299092E+03  0.32768271419E+03  0.18399100914E+03  0.50000000000E+03  0.18039957800E+03 0.  1.
 -1000024    1    1    2    0    0 -0.27609299092E+03 -0.32768271419E+03 -0.18399100914E+03  0.50000000000E+03  0.18039957800E+03 0. -1.
</event>
<event>
 4   0  0.1092222E-03  0.2236068E+02  0.7957747E-01  0.1516063E+00
      -11   -1    0    0    0    0  0.00000000000E+00  0.00000000000E+00  0.50000000000E+03  0.50000000000E+03  0.00000000000E+00 0.  1.
       11   -1    0    0    0    0 -0.00000000000E+00 -0.00000000000E+00 -0.50000000000E+03  0.50000000000E+03  0.00000000000E+00 0. -1.
  1000024    1    1    2    0    0  0.15685319635E+03 -0.28852126055E+03  0.33107181889E+03  0.50000000000E+03  0.18039957800E+03 0.  1.
 -1000024    1    1    2    0    0 -0.15685319635E+03  0.28852126055E+03 -0.33107181889E+03  0.50000000000E+03  0.18039957800E+03 0. -1.
</event>
<event>
 4   0  0.7366543E-04  0.2236068E+02  0.7957747E-01  0.1516063E+00
      -11   -1    0    0    0    0  0.00000000000E+00  0.00000000000E+00  0.50000000000E+03  0.50000000000E+03  0.00000000000E+00 0.  1.
       11   -1    0    0    0    0 -0.00000000000E+00 -0.00000000000E+00 -0.50000000000E+03  0.50000000000E+03  0.00000000000E+00 0. -1.
  1000024    1    1    2    0    0  0.11396126225E+03 -0.34056587183E+03  0.29746211508E+03  0.50000000000E+03  0.18039957800E+03 0.  1.
 -1000024    1    1    2    0    0 -0.11396126225E+03  0.34056587183E+03 -0.29746211508E+03  0.50000000000E+03  0.18039957800E+03 0. -1.
</event>
<event>
 4   0  0.7366543E-04  0.2236068E+02  0.7957747E-01  0.1516063E+00
      -11   -1    0    0    0    0  0.00000000000E+00  0.00000000000E+00  0.50000000000E+03  0.50000000000E+03  0.00000000000E+00 0.  1.
       11   -1    0    0    0    0 -0.00000000000E+00 -0.00000000000E+00 -0.50000000000E+03  0.50000000000E+03  0.00000000000E+00 0. -1.
  1000024    1    1    2    0    0  0.29539836720E+03 -0.33771442399E+03  0.12706205075E+03  0.50000000000E+03  0.18039957800E+03 0. -1.
 -1000024    1    1    2    0    0 -0.29539836720E+03  0.33771442399E+03 -0.12706205075E+03  0.50000000000E+03  0.18039957800E+03 0.  1.
</event>
<event>
 4   0  0.6712789E-04  0.2236068E+02  0.7957747E-01  0.1516063E+00
      -11   -1    0    0    0    0  0.00000000000E+00  0.00000000000E+00  0.50000000000E+03  0.50000000000E+03  0.00000000000E+00 0.  1.
       11   -1    0    0    0    0 -0.00000000000E+00 -0.00000000000E+00 -0.50000000000E+03  0.50000000000E+03  0.00000000000E+00 0. -1.
  1000024    1    1    2    0    0 -0.40329558908E+03 -0.22483949088E+03  0.65236979012E+02  0.50000000000E+03  0.18039957800E+03 0. -1.
 -1000024    1    1    2    0    0  0.40329558908E+03  0.22483949088E+03 -0.65236979012E+02  0.50000000000E+03  0.18039957800E+03 0.  1.
</event>
<event>
 4   0  0.1092222E-03  0.2236068E+02  0.7957747E-01  0.1516063E+00
      -11   -1    0    0    0    0  0.00000000000E+00  0.00000000000E+00  0.50000000000E+03  0.50000000000E+03  0.00000000000E+00 0.  1.
       11   -1    0    0    0    0 -0.00000000000E+00 -0.00000000000E+00 -0.50000000000E+03  0.50000000000E+03  0.00000000000E+00 0. -1.
  1000024    1    1    2    0    0 -0.23807761266E+03 -0.27445331003E+03  0.29231904355E+03  0.50000000000E+03  0.18039957800E+03 0.  1.
 -1000024    1    1    2    0    0  0.23807761266E+03  0.27445331003E+03 -0.29231904355E+03  0.50000000000E+03  0.18039957800E+03 0. -1.
</event>
<event>
 4   0  0.7366543E-04  0.2236068E+02  0.7957747E-01  0.1516063E+00
      -11   -1    0    0    0    0  0.00000000000E+00  0.00000000000E+00  0.50000000000E+03  0.50000000000E+03  0.00000000000E+00 0.  1.
       11   -1    0    0    0    0 -0.00000000000E+00 -0.00000000000E+00 -0.50000000000E+03  0.50000000000E+03  0.00000000000E+00 0. -1.
  1000024    1    1    2    0    0 -0.14904239228E+03  0.32392198542E+03  0.30052771074E+03  0.50000000000E+03  0.18039957800E+03 0.  1.
 -1000024    1    1    2    0    0  0.14904239228E+03 -0.32392198542E+03 -0.30052771074E+03  0.50000000000E+03  0.18039957800E+03 0. -1.
</event>
<event>
 4   0  0.6712789E-04  0.2236068E+02  0.7957747E-01  0.1516063E+00
      -11   -1    0    0    0    0  0.00000000000E+00  0.00000000000E+00  0.50000000000E+03  0.50000000000E+03  0.00000000000E+00 0.  1.
       11   -1    0    0    0    0 -0.00000000000E+00 -0.00000000000E+00 -0.50000000000E+03  0.50000000000E+03  0.00000000000E+00 0. -1.
  1000024    1    1    2    0    0 -0.13129909565E+03 -0.35360621812E+03  0.27418822412E+03  0.50000000000E+03  0.18039957800E+03 0. -1.
 -1000024    1    1    2    0    0  0.13129909565E+03  0.35360621812E+03 -0.27418822412E+03  0.50000000000E+03  0.18039957800E+03 0.  1.
</event>
<event>
 4   0  0.7366543E-04  0.2236068E+02  0.7957747E-01  0.1516063E+00
      -11   -1    0    0    0    0  0.00000000000E+00  0.00000000000E+00  0.50000000000E+03  0.50000000000E+03  0.00000000000E+00 0.  1.
       11   -1    0    0    0    0 -0.00000000000E+00 -0.00000000000E+00 -0.50000000000E+03  0.50000000000E+03  0.00000000000E+00 0. -1.
  1000024    1    1    2    0    0 -0.31724223824E+03  0.25495256859E+03  0.22762368572E+03  0.50000000000E+03  0.18039957800E+03 0. -1.
 -1000024    1    1    2    0    0  0.31724223824E+03 -0.25495256859E+03 -0.22762368572E+03  0.50000000000E+03  0.18039957800E+03 0.  1.
</event>
<event>
 4   0  0.1092222E-03  0.2236068E+02  0.7957747E-01  0.1516063E+00
      -11   -1    0    0    0    0  0.00000000000E+00  0.00000000000E+00  0.50000000000E+03  0.50000000000E+03  0.00000000000E+00 0.  1.
       11   -1    0    0    0    0 -0.00000000000E+00 -0.00000000000E+00 -0.50000000000E+03  0.50000000000E+03  0.00000000000E+00 0. -1.
  1000024    1    1    2    0    0 -0.17024378590E+03  0.12024151976E+03  0.41715107880E+03  0.50000000000E+03  0.18039957800E+03 0. -1.
 -1000024    1    1    2    0    0  0.17024378590E+03 -0.12024151976E+03 -0.41715107880E+03  0.50000000000E+03  0.18039957800E+03 0.  1.
</event>
<event>
 4   0  0.1092222E-03  0.2236068E+02  0.7957747E-01  0.1516063E+00
      -11   -1    0    0    0    0  0.00000000000E+00  0.00000000000E+00  0.50000000000E+03  0.50000000000E+03  0.00000000000E+00 0.  1.
       11   -1    0    0    0    0 -0.00000000000E+00 -0.00000000000E+00 -0.50000000000E+03  0.50000000000E+03  0.00000000000E+00 0. -1.
  1000024    1    1    2    0    0  0.17099893131E+03 -0.40464362390E+03 -0.15645732768E+03  0.50000000000E+03  0.18039957800E+03 0. -1.
 -1000024    1    1    2    0    0 -0.17099893131E+03  0.40464362390E+03  0.15645732768E+03  0.50000000000E+03  0.18039957800E+03 0.  1.
</event>
<event>
 4   0  0.1092222E-03  0.2236068E+02  0.7957747E-01  0.1516063E+00
      -11   -1    0    0    0    0  0.00000000000E+00  0.00000000000E+00  0.50000000000E+03  0.50000000000E+03  0.00000000000E+00 0.  1.
       11   -1    0    0    0    0 -0.00000000000E+00 -0.00000000000E+00 -0.50000000000E+03  0.50000000000E+03  0.00000000000E+00 0. -1.
  1000024    1    1    2    0    0 -0.41006981647E+01 -0.22578834434E+03  0.40799362751E+03  0.50000000000E+03  0.18039957800E+03 0. -1.
 -1000024    1    1    2    0    0  0.41006981647E+01  0.22578834434E+03 -0.40799362751E+03  0.50000000000E+03  0.18039957800E+03 0.  1.
</event>
<event>
 4   0  0.7366543E-04  0.2236068E+02  0.7957747E-01  0.1516063E+00
      -11   -1    0    0    0    0  0.00000000000E+00  0.00000000000E+00  0.50000000000E+03  0.50000000000E+03  0.00000000000E+00 0.  1.
       11   -1    0    0    0    0 -0.00000000000E+00 -0.00000000000E+00 -0.50000000000E+03  0.50000000000E+03  0.00000000000E+00 0. -1.
  1000024    1    1    2    0    0  0.17156160205E+03 -0.89494078989E+02  0.42427988261E+03  0.50000000000E+03  0.18039957800E+03 0.  1.
 -1000024    1    1    2    0    0 -0.17156160205E+03  0.89494078989E+02 -0.42427988261E+03  0.50000000000E+03  0.18039957800E+03 0. -1.
</event>
<event>
 4   0  0.7366543E-04  0.2236068E+02  0.7957747E-01  0.1516063E+00
      -11   -1    0    0    0    0  0.00000000000E+00  0.00000000000E+00  0.50000000000E+03  0.50000000000E+03  0.00000000000E+00 0.  1.
       11   -1    0    0    0    0 -0.00000000000E+00 -0.00000000000E+00 -0.50000000000E+03  0.50000000000E+03  0.00000000000E+00 0. -1.
  1000024    1    1    2    0    0 -0.39952422715E+03  0.17100998655E+03  0.16909159850E+03  0.50000000000E+03  0.18039957800E+03 0. -1.
 -1000024    1    1    2    0    0  0.39952422715E+03 -0.17100998655E+03 -0.16909159850E+03  0.50000000000E+03  0.18039957800E+03 0.  1.
</event>
<event>
 4   0  0.7366543E-04  0.2236068E+02  0.7957747E-01  0.1516063E+00
      -11   -1    0    0    0    0  0.00000000000E+00  0.00000000000E+00  0.50000000000E+03  0.50000000000E+03  0.00000000000E+00 0.  1.
       11   -1    0    0    0    0 -0.00000000000E+00 -0.00000000000E+00 -0.50000000000E+03  0.50000000000E+03  0.00000000000E+00 0. -1.
  1000024    1    1    2    0    0  0.39872042216E+03 -0.21064969178E+03 -0.11876331322E+03  0.50000000000E+03  0.18039957800E+03 0.  1.
 -1000024    1    1    2    0    0 -0.39872042216E+03  0.21064969178E+03  0.11876331322E+03  0.50000000000E+03  0.18039957800E+03 0. -1.
</event>
<event>
 4   0  0.6712789E-04  0.2236068E+02  0.7957747E-01  0.1516063E+00
      -11   -1    0    0    0    0  0.00000000000E+00  0.00000000000E+00  0.50000000000E+03  0.50000000000E+03  0.00000000000E+00 0.  1.
       11   -1    0    0    0    0 -0.00000000000E+00 -0.00000000000E+00 -0.50000000000E+03  0.50000000000E+03  0.00000000000E+00 0. -1.
  1000024    1    1    2    0    0 -0.44562533665E+03  0.32551459392E+02  0.13347079864E+03  0.50000000000E+03  0.18039957800E+03 0. -1.
 -1000024    1    1    2    0    0  0.44562533665E+03 -0.32551459392E+02 -0.13347079864E+03  0.50000000000E+03  0.18039957800E+03 0.  1.
</event>
<event>
 4   0  0.1092222E-03  0.2236068E+02  0.7957747E-01  0.1516063E+00
      -11   -1    0    0    0    0  0.00000000000E+00  0.00000000000E+00  0.50000000000E+03  0.50000000000E+03  0.00000000000E+00 0.  1.
       11   -1    0    0    0    0 -0.00000000000E+00 -0.00000000000E+00 -0.50000000000E+03  0.50000000000E+03  0.00000000000E+00 0. -1.
  1000024    1    1    2    0    0 -0.35451377355E+03  0.30168958780E+03 -0.27556654973E+02  0.50000000000E+03  0.18039957800E+03 0.  1.
 -1000024    1    1    2    0    0  0.35451377355E+03 -0.30168958780E+03  0.27556654973E+02  0.50000000000E+03  0.18039957800E+03 0. -1.
</event>
<event>
 4   0  0.1092222E-03  0.2236068E+02  0.7957747E-01  0.1516063E+00
      -11   -1    0    0    0    0  0.00000000000E+00  0.00000000000E+00  0.50000000000E+03  0.50000000000E+03  0.00000000000E+00 0.  1.
       11   -1    0    0    0    0 -0.00000000000E+00 -0.00000000000E+00 -0.50000000000E+03  0.50000000000E+03  0.00000000000E+00 0. -1.
  1000024    1    1    2    0    0 -0.15831984562E+03 -0.43600002546E+03 -0.47904034689E+02  0.50000000000E+03  0.18039957800E+03 0.  1.
 -1000024    1    1    2    0    0  0.15831984562E+03  0.43600002546E+03  0.47904034689E+02  0.50000000000E+03  0.18039957800E+03 0. -1.
</event>
<event>
 4   0  0.7366543E-04  0.2236068E+02  0.7957747E-01  0.1516063E+00
      -11   -1    0    0    0    0  0.00000000000E+00  0.00000000000E+00  0.50000000000E+03  0.50000000000E+03  0.00000000000E+00 0.  1.
       11   -1    0    0    0    0 -0.00000000000E+00 -0.00000000000E+00 -0.50000000000E+03  0.50000000000E+03  0.00000000000E+00 0. -1.
  1000024    1    1    2    0    0 -0.90758170234E+02 -0.39604877800E+03  0.22883249822E+03  0.50000000000E+03  0.18039957800E+03 0. -1.
 -1000024    1    1    2    0    0  0.90758170234E+02  0.39604877800E+03 -0.22883249822E+03  0.50000000000E+03  0.18039957800E+03 0.  1.
</event>
<event>
 4   0  0.1092222E-03  0.2236068E+02  0.7957747E-01  0.1516063E+00
      -11   -1    0    0    0    0  0.00000000000E+00  0.00000000000E+00  0.50000000000E+03  0.50000000000E+03  0.00000000000E+00 0.  1.
       11   -1    0    0    0    0 -0.00000000000E+00 -0.00000000000E+00 -0.50000000000E+03  0.50000000000E+03  0.00000000000E+00 0. -1.
  1000024    1    1    2    0    0  0.28862144287E+03 -0.96016395195E+02  0.35346075713E+03  0.50000000000E+03  0.18039957800E+03 0. -1.
 -1000024    1    1    2    0    0 -0.28862144287E+03  0.96016395195E+02 -0.35346075713E+03  0.50000000000E+03  0.18039957800E+03 0.  1.
</event>
<event>
 4   0  0.6712789E-04  0.2236068E+02  0.7957747E-01  0.1516063E+00
      -11   -1    0    0    0    0  0.00000000000E+00  0.00000000000E+00  0.50000000000E+03  0.50000000000E+03  0.00000000000E+00 0.  1.
       11   -1    0    0    0    0 -0.00000000000E+00 -0.00000000000E+00 -0.50000000000E+03  0.50000000000E+03  0.00000000000E+00 0. -1.
  1000024    1    1    2    0    0 -0.59488844959E+02 -0.36410870056E+03  0.28520505563E+03  0.50000000000E+03  0.18039957800E+03 0. -1.
 -1000024    1    1    2    0    0  0.59488844959E+02  0.36410870056E+03 -0.28520505563E+03  0.50000000000E+03  0.18039957800E+03 0.  1.
</event>
<event>
 4   0  0.1092222E-03  0.2236068E+02  0.7957747E-01  0.1516063E+00
      -11   -1    0    0    0    0  0.00000000000E+00  0.00000000000E+00  0.50000000000E+03  0.50000000000E+03  0.00000000000E+00 0.  1.
       11   -1    0    0    0    0 -0.00000000000E+00 -0.00000000000E+00 -0.50000000000E+03  0.50000000000E+03  0.00000000000E+00 0. -1.
  1000024    1    1    2    0    0  0.26814544735E+03 -0.36702095127E+03  0.10416156993E+03  0.50000000000E+03  0.18039957800E+03 0.  1.
 -1000024    1    1    2    0    0 -0.26814544735E+03  0.36702095127E+03 -0.10416156993E+03  0.50000000000E+03  0.18039957800E+03 0. -1.
</event>
<event>
 4   0  0.7366543E-04  0.2236068E+02  0.7957747E-01  0.1516063E+00
      -11   -1    0    0    0    0  0.00000000000E+00  0.00000000000E+00  0.50000000000E+03  0.50000000000E+03  0.00000000000E+00 0.  1.
       11   -1    0    0    0    0 -0.00000000000E+00 -0.00000000000E+00 -0.50000000000E+03  0.50000000000E+03  0.00000000000E+00 0. -1.
  1000024    1    1    2    0    0 -0.26724739135E+03 -0.22816348863E+03  0.30655545425E+03  0.50000000000E+03  0.18039957800E+03 0. -1.
 -1000024    1    1    2    0    0  0.26724739135E+03  0.22816348863E+03 -0.30655545425E+03  0.50000000000E+03  0.18039957800E+03 0.  1.
</event>
<event>
 4   0  0.6712789E-04  0.2236068E+02  0.7957747E-01  0.1516063E+00
      -11   -1    0    0    0    0  0.00000000000E+00  0.00000000000E+00  0.50000000000E+03  0.50000000000E+03  0.00000000000E+00 0.  1.
       11   -1    0    0    0    0 -0.00000000000E+00 -0.00000000000E+00 -0.50000000000E+03  0.50000000000E+03  0.00000000000E+00 0. -1.
  1000024    1    1    2    0    0  0.48618363335E+02  0.38078838760E+03  0.26474978918E+03  0.50000000000E+03  0.18039957800E+03 0. -1.
 -1000024    1    1    2    0    0 -0.48618363335E+02 -0.38078838760E+03 -0.26474978918E+03  0.50000000000E+03  0.18039957800E+03 0.  1.
</event>
<event>
 4   0  0.6712789E-04  0.2236068E+02  0.7957747E-01  0.1516063E+00
      -11   -1    0    0    0    0  0.00000000000E+00  0.00000000000E+00  0.50000000000E+03  0.50000000000E+03  0.00000000000E+00 0.  1.
       11   -1    0    0    0    0 -0.00000000000E+00 -0.00000000000E+00 -0.50000000000E+03  0.50000000000E+03  0.00000000000E+00 0. -1.
  1000024    1    1    2    0    0  0.25077669984E+03  0.17368587135E+03 -0.35270420634E+03  0.50000000000E+03  0.18039957800E+03 0. -1.
 -1000024    1    1    2    0    0 -0.25077669984E+03 -0.17368587135E+03  0.35270420634E+03  0.50000000000E+03  0.18039957800E+03 0.  1.
</event>
<event>
 4   0  0.7366543E-04  0.2236068E+02  0.7957747E-01  0.1516063E+00
      -11   -1    0    0    0    0  0.00000000000E+00  0.00000000000E+00  0.50000000000E+03  0.50000000000E+03  0.00000000000E+00 0.  1.
       11   -1    0    0    0    0 -0.00000000000E+00 -0.00000000000E+00 -0.50000000000E+03  0.50000000000E+03  0.00000000000E+00 0. -1.
  1000024    1    1    2    0    0 -0.21629795931E+03 -0.39549109624E+03 -0.11940677473E+03  0.50000000000E+03  0.18039957800E+03 0.  1.
 -1000024    1    1    2    0    0  0.21629795931E+03  0.39549109624E+03  0.11940677473E+03  0.50000000000E+03  0.18039957800E+03 0. -1.
</event>
<event>
 4   0  0.6712789E-04  0.2236068E+02  0.7957747E-01  0.1516063E+00
      -11   -1    0    0    0    0  0.00000000000E+00  0.00000000000E+00  0.50000000000E+03  0.50000000000E+03  0.00000000000E+00 0.  1.
       11   -1    0    0    0    0 -0.00000000000E+00 -0.00000000000E+00 -0.50000000000E+03  0.50000000000E+03  0.00000000000E+00 0. -1.
  1000024    1    1    2    0    0 -0.26754227329E+03  0.23707593825E+02  0.38120214356E+03  0.50000000000E+03  0.18039957800E+03 0.  1.
 -1000024    1    1    2    0    0  0.26754227329E+03 -0.23707593825E+02 -0.38120214356E+03  0.50000000000E+03  0.18039957800E+03 0. -1.
</event>
<event>
 4   0  0.1092222E-03  0.2236068E+02  0.7957747E-01  0.1516063E+00
      -11   -1    0    0    0    0  0.00000000000E+00  0.00000000000E+00  0.50000000000E+03  0.50000000000E+03  0.00000000000E+00 0.  1.
       11   -1    0    0    0    0 -0.00000000000E+00 -0.00000000000E+00 -0.50000000000E+03  0.50000000000E+03  0.00000000000E+00 0. -1.
  1000024    1    1    2    0    0 -0.21540384307E+03 -0.36468662632E+03  0.19509187894E+03  0.50000000000E+03  0.18039957800E+03 0.  1.
 -1000024    1    1    2    0    0  0.21540384307E+03  0.36468662632E+03 -0.19509187894E+03  0.50000000000E+03  0.18039957800E+03 0. -1.
</event>
<event>
 4   0  0.6712789E-04  0.2236068E+02  0.7957747E-01  0.1516063E+00
      -11   -1    0    0    0    0  0.00000000000E+00  0.00000000000E+00  0.50000000000E+03  0.50000000000E+03  0.00000000000E+00 0.  1.
       11   -1    0    0    0    0 -0.00000000000E+00 -0.00000000000E+00 -0.50000000000E+03  0.50000000000E+03  0.00000000000E+00 0. -1.
  1000024    1    1    2    0    0 -0.38436841999E+03  0.19805606462E+03  0.17461587911E+03  0.50000000000E+03  0.18039957800E+03 0.  1.
 -1000024    1    1    2    0    0  0.38436841999E+03 -0.19805606462E+03 -0.17461587911E+03  0.50000000000E+03  0.18039957800E+03 0. -1.
</event>
<event>
 4   0  0.1092222E-03  0.2236068E+02  0.7957747E-01  0.1516063E+00
      -11   -1    0    0    0    0  0.00000000000E+00  0.00000000000E+00  0.50000000000E+03  0.50000000000E+03  0.00000000000E+00 0.  1.
       11   -1    0    0    0    0 -0.00000000000E+00 -0.00000000000E+00 -0.50000000000E+03  0.50000000000E+03  0.00000000000E+00 0. -1.
  1000024    1    1    2    0    0 -0.19671216428E+03 -0.41660018350E+03  0.72142940002E+02  0.50000000000E+03  0.18039957800E+03 0.  1.
 -1000024    1    1    2    0    0  0.19671216428E+03  0.41660018350E+03 -0.72142940002E+02  0.50000000000E+03  0.18039957800E+03 0. -1.
</event>
<event>
 4   0  0.1092222E-03  0.2236068E+02  0.7957747E-01  0.1516063E+00
      -11   -1    0    0    0    0  0.00000000000E+00  0.00000000000E+00  0.50000000000E+03  0.50000000000E+03  0.00000000000E+00 0.  1.
       11   -1    0    0    0    0 -0.00000000000E+00 -0.00000000000E+00 -0.50000000000E+03  0.50000000000E+03  0.00000000000E+00 0. -1.
  1000024    1    1    2    0    0 -0.73609021055E+02  0.30103032231E+03  0.34845150211E+03  0.50000000000E+03  0.18039957800E+03 0. -1.
 -1000024    1    1    2    0    0  0.73609021055E+02 -0.30103032231E+03 -0.34845150211E+03  0.50000000000E+03  0.18039957800E+03 0.  1.
</event>
<event>
 4   0  0.7366543E-04  0.2236068E+02  0.7957747E-01  0.1516063E+00
      -11   -1    0    0    0    0  0.00000000000E+00  0.00000000000E+00  0.50000000000E+03  0.50000000000E+03  0.00000000000E+00 0.  1.
       11   -1    0    0    0    0 -0.00000000000E+00 -0.00000000000E+00 -0.50000000000E+03  0.50000000000E+03  0.00000000000E+00 0. -1.
  1000024    1    1    2    0    0  0.30852490860E+03  0.34504541911E+03  0.56674789602E+02  0.50000000000E+03  0.18039957800E+03 0.  1.
 -1000024    1    1    2    0    0 -0.30852490860E+03 -0.34504541911E+03 -0.56674789602E+02  0.50000000000E+03  0.18039957800E+03 0. -1.
</event>
<event>
 4   0  0.7366543E-04  0.2236068E+02  0.7957747E-01  0.1516063E+00
      -11   -1    0    0    0    0  0.00000000000E+00  0.00000000000E+00  0.50000000000E+03  0.50000000000E+03  0.00000000000E+00 0.  1.
       11   -1    0    0    0    0 -0.00000000000E+00 -0.00000000000E+00 -0.50000000000E+03  0.50000000000E+03  0.00000000000E+00 0. -1.
  1000024    1    1    2    0    0  0.21187027290E+03  0.12024385110E+03  0.39762846477E+03  0.50000000000E+03  0.18039957800E+03 0. -1.
 -1000024    1    1    2    0    0 -0.21187027290E+03 -0.12024385110E+03 -0.39762846477E+03  0.50000000000E+03  0.18039957800E+03 0. -1.
</event>
<event>
 4   0  0.7366543E-04  0.2236068E+02  0.7957747E-01  0.1516063E+00
      -11   -1    0    0    0    0  0.00000000000E+00  0.00000000000E+00  0.50000000000E+03  0.50000000000E+03  0.00000000000E+00 0.  1.
       11   -1    0    0    0    0 -0.00000000000E+00 -0.00000000000E+00 -0.50000000000E+03  0.50000000000E+03  0.00000000000E+00 0. -1.
  1000024    1    1    2    0    0 -0.38341268318E+03 -0.42916880226E+01  0.26539082133E+03  0.50000000000E+03  0.18039957800E+03 0.  1.
 -1000024    1    1    2    0    0  0.38341268318E+03  0.42916880226E+01 -0.26539082133E+03  0.50000000000E+03  0.18039957800E+03 0. -1.
</event>
<event>
 4   0  0.1092222E-03  0.2236068E+02  0.7957747E-01  0.1516063E+00
      -11   -1    0    0    0    0  0.00000000000E+00  0.00000000000E+00  0.50000000000E+03  0.50000000000E+03  0.00000000000E+00 0.  1.
       11   -1    0    0    0    0 -0.00000000000E+00 -0.00000000000E+00 -0.50000000000E+03  0.50000000000E+03  0.00000000000E+00 0. -1.
  1000024    1    1    2    0    0 -0.43640667137E+03 -0.15321099151E+03  0.59427279255E+02  0.50000000000E+03  0.18039957800E+03 0. -1.
 -1000024    1    1    2    0    0  0.43640667137E+03  0.15321099151E+03 -0.59427279255E+02  0.50000000000E+03  0.18039957800E+03 0.  1.
</event>
<event>
 4   0  0.6712789E-04  0.2236068E+02  0.7957747E-01  0.1516063E+00
      -11   -1    0    0    0    0  0.00000000000E+00  0.00000000000E+00  0.50000000000E+03  0.50000000000E+03  0.00000000000E+00 0.  1.
       11   -1    0    0    0    0 -0.00000000000E+00 -0.00000000000E+00 -0.50000000000E+03  0.50000000000E+03  0.00000000000E+00 0. -1.
  1000024    1    1    2    0    0  0.15471063599E+03  0.18503887534E+03  0.39910052115E+03  0.50000000000E+03  0.18039957800E+03 0. -1.
 -1000024    1    1    2    0    0 -0.15471063599E+03 -0.18503887534E+03 -0.39910052115E+03  0.50000000000E+03  0.18039957800E+03 0.  1.
</event>
<event>
 4   0  0.1092222E-03  0.2236068E+02  0.7957747E-01  0.1516063E+00
      -11   -1    0    0    0    0  0.00000000000E+00  0.00000000000E+00  0.50000000000E+03  0.50000000000E+03  0.00000000000E+00 0.  1.
       11   -1    0    0    0    0 -0.00000000000E+00 -0.00000000000E+00 -0.50000000000E+03  0.50000000000E+03  0.00000000000E+00 0. -1.
  1000024    1    1    2    0    0  0.45650473246E+03 -0.76943689402E+02 -0.56027583892E+02  0.50000000000E+03  0.18039957800E+03 0.  1.
 -1000024    1    1    2    0    0 -0.45650473246E+03  0.76943689402E+02  0.56027583892E+02  0.50000000000E+03  0.18039957800E+03 0. -1.
</event>
<event>
 4   0  0.1092222E-03  0.2236068E+02  0.7957747E-01  0.1516063E+00
      -11   -1    0    0    0    0  0.00000000000E+00  0.00000000000E+00  0.50000000000E+03  0.50000000000E+03  0.00000000000E+00 0.  1.
       11   -1    0    0    0    0 -0.00000000000E+00 -0.00000000000E+00 -0.50000000000E+03  0.50000000000E+03  0.00000000000E+00 0. -1.
  1000024    1    1    2    0    0 -0.42211076621E+02  0.42647747935E+03  0.18382376580E+03  0.50000000000E+03  0.18039957800E+03 0.  1.
 -1000024    1    1    2    0    0  0.42211076621E+02 -0.42647747935E+03 -0.18382376580E+03  0.50000000000E+03  0.18039957800E+03 0. -1.
</event>
<event>
 4   0  0.1092222E-03  0.2236068E+02  0.7957747E-01  0.1516063E+00
      -11   -1    0    0    0    0  0.00000000000E+00  0.00000000000E+00  0.50000000000E+03  0.50000000000E+03  0.00000000000E+00 0.  1.
       11   -1    0    0    0    0 -0.00000000000E+00 -0.00000000000E+00 -0.50000000000E+03  0.50000000000E+03  0.00000000000E+00 0. -1.
  1000024    1    1    2    0    0 -0.60908428409E+02 -0.26913862193E+03  0.37591296572E+03  0.50000000000E+03  0.18039957800E+03 0. -1.
 -1000024    1    1    2    0    0  0.60908428409E+02  0.26913862193E+03 -0.37591296572E+03  0.50000000000E+03  0.18039957800E+03 0.  1.
</event>
<event>
 4   0  0.7366543E-04  0.2236068E+02  0.7957747E-01  0.1516063E+00
      -11   -1    0    0    0    0  0.00000000000E+00  0.00000000000E+00  0.50000000000E+03  0.50000000000E+03  0.00000000000E+00 0.  1.
       11   -1    0    0    0    0 -0.00000000000E+00 -0.00000000000E+00 -0.50000000000E+03  0.50000000000E+03  0.00000000000E+00 0. -1.
  1000024    1    1    2    0    0  0.19892731955E+03 -0.20840232077E+03  0.36667749657E+03  0.50000000000E+03  0.18039957800E+03 0. -1.
 -1000024    1    1    2    0    0 -0.19892731955E+03  0.20840232077E+03 -0.36667749657E+03  0.50000000000E+03  0.18039957800E+03 0.  1.
</event>
<event>
 4   0  0.1092222E-03  0.2236068E+02  0.7957747E-01  0.1516063E+00
      -11   -1    0    0    0    0  0.00000000000E+00  0.00000000000E+00  0.50000000000E+03  0.50000000000E+03  0.00000000000E+00 0.  1.
       11   -1    0    0    0    0 -0.00000000000E+00 -0.00000000000E+00 -0.50000000000E+03  0.50000000000E+03  0.00000000000E+00 0. -1.
  1000024    1    1    2    0    0 -0.36316916277E+03 -0.23283382846E+03  0.17706654058E+03  0.50000000000E+03  0.18039957800E+03 0.  1.
 -1000024    1    1    2    0    0  0.36316916277E+03  0.23283382846E+03 -0.17706654058E+03  0.50000000000E+03  0.18039957800E+03 0. -1.
</event>
<event>
 4   0  0.1092222E-03  0.2236068E+02  0.7957747E-01  0.1516063E+00
      -11   -1    0    0    0    0  0.00000000000E+00  0.00000000000E+00  0.50000000000E+03  0.50000000000E+03  0.00000000000E+00 0.  1.
       11   -1    0    0    0    0 -0.00000000000E+00 -0.00000000000E+00 -0.50000000000E+03  0.50000000000E+03  0.00000000000E+00 0. -1.
  1000024    1    1    2    0    0 -0.50610387369E+02  0.33367603491E+03  0.32179944790E+03  0.50000000000E+03  0.18039957800E+03 0.  1.
 -1000024    1    1    2    0    0  0.50610387369E+02 -0.33367603491E+03 -0.32179944790E+03  0.50000000000E+03  0.18039957800E+03 0. -1.
</event>
<event>
 4   0  0.7366543E-04  0.2236068E+02  0.7957747E-01  0.1516063E+00
      -11   -1    0    0    0    0  0.00000000000E+00  0.00000000000E+00  0.50000000000E+03  0.50000000000E+03  0.00000000000E+00 0.  1.
       11   -1    0    0    0    0 -0.00000000000E+00 -0.00000000000E+00 -0.50000000000E+03  0.50000000000E+03  0.00000000000E+00 0. -1.
  1000024    1    1    2    0    0 -0.22065838949E+03 -0.20752185416E+02  0.41028674632E+03  0.50000000000E+03  0.18039957800E+03 0. -1.
 -1000024    1    1    2    0    0  0.22065838949E+03  0.20752185416E+02 -0.41028674632E+03  0.50000000000E+03  0.18039957800E+03 0. -1.
</event>
<event>
 4   0  0.7366543E-04  0.2236068E+02  0.7957747E-01  0.1516063E+00
      -11   -1    0    0    0    0  0.00000000000E+00  0.00000000000E+00  0.50000000000E+03  0.50000000000E+03  0.00000000000E+00 0.  1.
       11   -1    0    0    0    0 -0.00000000000E+00 -0.00000000000E+00 -0.50000000000E+03  0.50000000000E+03  0.00000000000E+00 0. -1.
  1000024    1    1    2    0    0  0.25024634110E+03  0.36936212609E+03  0.13566274666E+03  0.50000000000E+03  0.18039957800E+03 0.  1.
 -1000024    1    1    2    0    0 -0.25024634110E+03 -0.36936212609E+03 -0.13566274666E+03  0.50000000000E+03  0.18039957800E+03 0. -1.
</event>
<event>
 4   0  0.1092222E-03  0.2236068E+02  0.7957747E-01  0.1516063E+00
      -11   -1    0    0    0    0  0.00000000000E+00  0.00000000000E+00  0.50000000000E+03  0.50000000000E+03  0.00000000000E+00 0.  1.
       11   -1    0    0    0    0 -0.00000000000E+00 -0.00000000000E+00 -0.50000000000E+03  0.50000000000E+03  0.00000000000E+00 0. -1.
  1000024    1    1    2    0    0 -0.37368439377E+03 -0.22224175570E+03  0.16859587223E+03  0.50000000000E+03  0.18039957800E+03 0.  1.
 -1000024    1    1    2    0    0  0.37368439377E+03  0.22224175570E+03 -0.16859587223E+03  0.50000000000E+03  0.18039957800E+03 0. -1.
</event>
<event>
 4   0  0.1092222E-03  0.2236068E+02  0.7957747E-01  0.1516063E+00
      -11   -1    0    0    0    0  0.00000000000E+00  0.00000000000E+00  0.50000000000E+03  0.50000000000E+03  0.00000000000E+00 0.  1.
       11   -1    0    0    0    0 -0.00000000000E+00 -0.00000000000E+00 -0.50000000000E+03  0.50000000000E+03  0.00000000000E+00 0. -1.
  1000024    1    1    2    0    0 -0.19438150557E+03 -0.39532125258E+03  0.15294747401E+03  0.50000000000E+03  0.18039957800E+03 0. -1.
 -1000024    1    1    2    0    0  0.19438150557E+03  0.39532125258E+03 -0.15294747401E+03  0.50000000000E+03  0.18039957800E+03 0.  1.
</event>
<event>
 4   0  0.1092222E-03  0.2236068E+02  0.7957747E-01  0.1516063E+00
      -11   -1    0    0    0    0  0.00000000000E+00  0.00000000000E+00  0.50000000000E+03  0.50000000000E+03  0.00000000000E+00 0.  1.
       11   -1    0    0    0    0 -0.00000000000E+00 -0.00000000000E+00 -0.50000000000E+03  0.50000000000E+03  0.00000000000E+00 0. -1.
  1000024    1    1    2    0    0  0.33500291130E+03 -0.31054805561E+03  0.93749383137E+02  0.50000000000E+03  0.18039957800E+03 0.  1.
 -1000024    1    1    2    0    0 -0.33500291130E+03  0.31054805561E+03 -0.93749383137E+02  0.50000000000E+03  0.18039957800E+03 0. -1.
</event>
<event>
 4   0  0.7366543E-04  0.2236068E+02  0.7957747E-01  0.1516063E+00
      -11   -1    0    0    0    0  0.00000000000E+00  0.00000000000E+00  0.50000000000E+03  0.50000000000E+03  0.00000000000E+00 0.  1.
       11   -1    0    0    0    0 -0.00000000000E+00 -0.00000000000E+00 -0.50000000000E+03  0.50000000000E+03  0.00000000000E+00 0. -1.
  1000024    1    1    2    0    0 -0.42325273223E+02  0.37120061411E+03  0.27906032965E+03  0.50000000000E+03  0.18039957800E+03 0.  1.
 -1000024    1    1    2    0    0  0.42325273223E+02 -0.37120061411E+03 -0.27906032965E+03  0.50000000000E+03  0.18039957800E+03 0. -1.
</event>
<event>
 4   0  0.7366543E-04  0.2236068E+02  0.7957747E-01  0.1516063E+00
      -11   -1    0    0    0    0  0.00000000000E+00  0.00000000000E+00  0.50000000000E+03  0.50000000000E+03  0.00000000000E+00 0.  1.
       11   -1    0    0    0    0 -0.00000000000E+00 -0.00000000000E+00 -0.50000000000E+03  0.50000000000E+03  0.00000000000E+00 0. -1.
  1000024    1    1    2    0    0  0.19133285393E+03 -0.13115162518E+03  0.40453304250E+03  0.50000000000E+03  0.18039957800E+03 0. -1.
 -1000024    1    1    2    0    0 -0.19133285393E+03  0.13115162518E+03 -0.40453304250E+03  0.50000000000E+03  0.18039957800E+03 0. -1.
</event>
<event>
 4   0  0.1092222E-03  0.2236068E+02  0.7957747E-01  0.1516063E+00
      -11   -1    0    0    0    0  0.00000000000E+00  0.00000000000E+00  0.50000000000E+03  0.50000000000E+03  0.00000000000E+00 0.  1.
       11   -1    0    0    0    0 -0.00000000000E+00 -0.00000000000E+00 -0.50000000000E+03  0.50000000000E+03  0.00000000000E+00 0. -1.
  1000024    1    1    2    0    0 -0.98987163976E+02  0.45029300688E+03 -0.69955282741E+02  0.50000000000E+03  0.18039957800E+03 0. -1.
 -1000024    1    1    2    0    0  0.98987163976E+02 -0.45029300688E+03  0.69955282741E+02  0.50000000000E+03  0.18039957800E+03 0.  1.
</event>
<event>
 4   0  0.1092222E-03  0.2236068E+02  0.7957747E-01  0.1516063E+00
      -11   -1    0    0    0    0  0.00000000000E+00  0.00000000000E+00  0.50000000000E+03  0.50000000000E+03  0.00000000000E+00 0.  1.
       11   -1    0    0    0    0 -0.00000000000E+00 -0.00000000000E+00 -0.50000000000E+03  0.50000000000E+03  0.00000000000E+00 0. -1.
  1000024    1    1    2    0    0  0.20829981940E+02 -0.25423658752E+03  0.39036631729E+03  0.50000000000E+03  0.18039957800E+03 0.  1.
 -1000024    1    1    2    0    0 -0.20829981940E+02  0.25423658752E+03 -0.39036631729E+03  0.50000000000E+03  0.18039957800E+03 0. -1.
</event>
<event>
 4   0  0.6712789E-04  0.2236068E+02  0.7957747E-01  0.1516063E+00
      -11   -1    0    0    0    0  0.00000000000E+00  0.00000000000E+00  0.50000000000E+03  0.50000000000E+03  0.00000000000E+00 0.  1.
       11   -1    0    0    0    0 -0.00000000000E+00 -0.00000000000E+00 -0.50000000000E+03  0.50000000000E+03  0.00000000000E+00 0. -1.
  1000024    1    1    2    0    0  0.19553123368E+02 -0.22108897661E+03  0.41011380377E+03  0.50000000000E+03  0.18039957800E+03 0. -1.
 -1000024    1    1    2    0    0 -0.19553123368E+02  0.22108897661E+03 -0.41011380377E+03  0.50000000000E+03  0.18039957800E+03 0.  1.
</event>
<event>
 4   0  0.7366543E-04  0.2236068E+02  0.7957747E-01  0.1516063E+00
      -11   -1    0    0    0    0  0.00000000000E+00  0.00000000000E+00  0.50000000000E+03  0.50000000000E+03  0.00000000000E+00 0.  1.
       11   -1    0    0    0    0 -0.00000000000E+00 -0.00000000000E+00 -0.50000000000E+03  0.50000000000E+03  0.00000000000E+00 0. -1.
  1000024    1    1    2    0    0 -0.10903084429E+02 -0.32568273090E+03  0.33356839449E+03  0.50000000000E+03  0.18039957800E+03 0. -1.
 -1000024    1    1    2    0    0  0.10903084429E+02  0.32568273090E+03 -0.33356839449E+03  0.50000000000E+03  0.18039957800E+03 0.  1.
</event>
<event>
 4   0  0.7366543E-04  0.2236068E+02  0.7957747E-01  0.1516063E+00
      -11   -1    0    0    0    0  0.00000000000E+00  0.00000000000E+00  0.50000000000E+03  0.50000000000E+03  0.00000000000E+00 0.  1.
       11   -1    0    0    0    0 -0.00000000000E+00 -0.00000000000E+00 -0.50000000000E+03  0.50000000000E+03  0.00000000000E+00 0. -1.
  1000024    1    1    2    0    0  0.40035977755E+02  0.46459704028E+03  0.16440504961E+01  0.50000000000E+03  0.18039957800E+03 0. -1.
 -1000024    1    1    2    0    0 -0.40035977755E+02 -0.46459704028E+03 -0.16440504961E+01  0.50000000000E+03  0.18039957800E+03 0.  1.
</event>
<event>
 4   0  0.6712789E-04  0.2236068E+02  0.7957747E-01  0.1516063E+00
      -11   -1    0    0    0    0  0.00000000000E+00  0.00000000000E+00  0.50000000000E+03  0.50000000000E+03  0.00000000000E+00 0.  1.
       11   -1    0    0    0    0 -0.00000000000E+00 -0.00000000000E+00 -0.50000000000E+03  0.50000000000E+03  0.00000000000E+00 0. -1.
  1000024    1    1    2    0    0  0.16980092734E+03  0.18998114813E+03  0.39055191805E+03  0.50000000000E+03  0.18039957800E+03 0. -1.
 -1000024    1    1    2    0    0 -0.16980092734E+03 -0.18998114813E+03 -0.39055191805E+03  0.50000000000E+03  0.18039957800E+03 0.  1.
</event>
<event>
 4   0  0.1092222E-03  0.2236068E+02  0.7957747E-01  0.1516063E+00
      -11   -1    0    0    0    0  0.00000000000E+00  0.00000000000E+00  0.50000000000E+03  0.50000000000E+03  0.00000000000E+00 0.  1.
       11   -1    0    0    0    0 -0.00000000000E+00 -0.00000000000E+00 -0.50000000000E+03  0.50000000000E+03  0.00000000000E+00 0. -1.
  1000024    1    1    2    0    0 -0.27635261165E+03 -0.37527730343E+03  0.15879918871E+02  0.50000000000E+03  0.18039957800E+03 0.  1.
 -1000024    1    1    2    0    0  0.27635261165E+03  0.37527730343E+03 -0.15879918871E+02  0.50000000000E+03  0.18039957800E+03 0. -1.
</event>
<event>
 4   0  0.6712789E-04  0.2236068E+02  0.7957747E-01  0.1516063E+00
      -11   -1    0    0    0    0  0.00000000000E+00  0.00000000000E+00  0.50000000000E+03  0.50000000000E+03  0.00000000000E+00 0.  1.
       11   -1    0    0    0    0 -0.00000000000E+00 -0.00000000000E+00 -0.50000000000E+03  0.50000000000E+03  0.00000000000E+00 0. -1.
  1000024    1    1    2    0    0  0.22681384944E+03 -0.22798770937E+03  0.33768783563E+03  0.50000000000E+03  0.18039957800E+03 0. -1.
 -1000024    1    1    2    0    0 -0.22681384944E+03  0.22798770937E+03 -0.33768783563E+03  0.50000000000E+03  0.18039957800E+03 0.  1.
</event>
<event>
 4   0  0.6712789E-04  0.2236068E+02  0.7957747E-01  0.1516063E+00
      -11   -1    0    0    0    0  0.00000000000E+00  0.00000000000E+00  0.50000000000E+03  0.50000000000E+03  0.00000000000E+00 0.  1.
       11   -1    0    0    0    0 -0.00000000000E+00 -0.00000000000E+00 -0.50000000000E+03  0.50000000000E+03  0.00000000000E+00 0. -1.
  1000024    1    1    2    0    0 -0.43108983881E+03  0.10960422098E+03  0.14001592008E+03  0.50000000000E+03  0.18039957800E+03 0. -1.
 -1000024    1    1    2    0    0  0.43108983881E+03 -0.10960422098E+03 -0.14001592008E+03  0.50000000000E+03  0.18039957800E+03 0.  1.
</event>
<event>
 4   0  0.1092222E-03  0.2236068E+02  0.7957747E-01  0.1516063E+00
      -11   -1    0    0    0    0  0.00000000000E+00  0.00000000000E+00  0.50000000000E+03  0.50000000000E+03  0.00000000000E+00 0.  1.
       11   -1    0    0    0    0 -0.00000000000E+00 -0.00000000000E+00 -0.50000000000E+03  0.50000000000E+03  0.00000000000E+00 0. -1.
  1000024    1    1    2    0    0  0.27142688279E+03 -0.36419012483E+03  0.10558878981E+03  0.50000000000E+03  0.18039957800E+03 0.  1.
 -1000024    1    1    2    0    0 -0.27142688279E+03  0.36419012483E+03 -0.10558878981E+03  0.50000000000E+03  0.18039957800E+03 0. -1.
</event>
<event>
 4   0  0.7366543E-04  0.2236068E+02  0.7957747E-01  0.1516063E+00
      -11   -1    0    0    0    0  0.00000000000E+00  0.00000000000E+00  0.50000000000E+03  0.50000000000E+03  0.00000000000E+00 0.  1.
       11   -1    0    0    0    0 -0.00000000000E+00 -0.00000000000E+00 -0.50000000000E+03  0.50000000000E+03  0.00000000000E+00 0. -1.
  1000024    1    1    2    0    0 -0.19129788617E+02  0.18162174036E+03  0.42907293888E+03  0.50000000000E+03  0.18039957800E+03 0.  1.
 -1000024    1    1    2    0    0  0.19129788617E+02 -0.18162174036E+03 -0.42907293888E+03  0.50000000000E+03  0.18039957800E+03 0.  1.
</event>
<event>
 4   0  0.1092222E-03  0.2236068E+02  0.7957747E-01  0.1516063E+00
      -11   -1    0    0    0    0  0.00000000000E+00  0.00000000000E+00  0.50000000000E+03  0.50000000000E+03  0.00000000000E+00 0.  1.
       11   -1    0    0    0    0 -0.00000000000E+00 -0.00000000000E+00 -0.50000000000E+03  0.50000000000E+03  0.00000000000E+00 0. -1.
  1000024    1    1    2    0    0  0.20262509004E+03  0.37232684097E+03  0.19434965560E+03  0.50000000000E+03  0.18039957800E+03 0.  1.
 -1000024    1    1    2    0    0 -0.20262509004E+03 -0.37232684097E+03 -0.19434965560E+03  0.50000000000E+03  0.18039957800E+03 0. -1.
</event>
<event>
 4   0  0.1092222E-03  0.2236068E+02  0.7957747E-01  0.1516063E+00
      -11   -1    0    0    0    0  0.00000000000E+00  0.00000000000E+00  0.50000000000E+03  0.50000000000E+03  0.00000000000E+00 0.  1.
       11   -1    0    0    0    0 -0.00000000000E+00 -0.00000000000E+00 -0.50000000000E+03  0.50000000000E+03  0.00000000000E+00 0. -1.
  1000024    1    1    2    0    0  0.45932377553E+03  0.79014906735E+02  0.15307057382E+02  0.50000000000E+03  0.18039957800E+03 0. -1.
 -1000024    1    1    2    0    0 -0.45932377553E+03 -0.79014906735E+02 -0.15307057382E+02  0.50000000000E+03  0.18039957800E+03 0.  1.
</event>
<event>
 4   0  0.1092222E-03  0.2236068E+02  0.7957747E-01  0.1516063E+00
      -11   -1    0    0    0    0  0.00000000000E+00  0.00000000000E+00  0.50000000000E+03  0.50000000000E+03  0.00000000000E+00 0.  1.
       11   -1    0    0    0    0 -0.00000000000E+00 -0.00000000000E+00 -0.50000000000E+03  0.50000000000E+03  0.00000000000E+00 0. -1.
  1000024    1    1    2    0    0 -0.46160910536E+02  0.44105231783E+03  0.14421517096E+03  0.50000000000E+03  0.18039957800E+03 0. -1.
 -1000024    1    1    2    0    0  0.46160910536E+02 -0.44105231783E+03 -0.14421517096E+03  0.50000000000E+03  0.18039957800E+03 0.  1.
</event>
<event>
 4   0  0.6712789E-04  0.2236068E+02  0.7957747E-01  0.1516063E+00
      -11   -1    0    0    0    0  0.00000000000E+00  0.00000000000E+00  0.50000000000E+03  0.50000000000E+03  0.00000000000E+00 0.  1.
       11   -1    0    0    0    0 -0.00000000000E+00 -0.00000000000E+00 -0.50000000000E+03  0.50000000000E+03  0.00000000000E+00 0. -1.
  1000024    1    1    2    0    0  0.14629790013E+03  0.14932589516E+03  0.41683893018E+03  0.50000000000E+03  0.18039957800E+03 0. -1.
 -1000024    1    1    2    0    0 -0.14629790013E+03 -0.14932589516E+03 -0.41683893018E+03  0.50000000000E+03  0.18039957800E+03 0.  1.
</event>
<event>
 4   0  0.1092222E-03  0.2236068E+02  0.7957747E-01  0.1516063E+00
      -11   -1    0    0    0    0  0.00000000000E+00  0.00000000000E+00  0.50000000000E+03  0.50000000000E+03  0.00000000000E+00 0.  1.
       11   -1    0    0    0    0 -0.00000000000E+00 -0.00000000000E+00 -0.50000000000E+03  0.50000000000E+03  0.00000000000E+00 0. -1.
  1000024    1    1    2    0    0  0.29196679968E+03  0.30523257706E+03  0.19759669543E+03  0.50000000000E+03  0.18039957800E+03 0.  1.
 -1000024    1    1    2    0    0 -0.29196679968E+03 -0.30523257706E+03 -0.19759669543E+03  0.50000000000E+03  0.18039957800E+03 0. -1.
</event>
<event>
 4   0  0.7366543E-04  0.2236068E+02  0.7957747E-01  0.1516063E+00
      -11   -1    0    0    0    0  0.00000000000E+00  0.00000000000E+00  0.50000000000E+03  0.50000000000E+03  0.00000000000E+00 0.  1.
       11   -1    0    0    0    0 -0.00000000000E+00 -0.00000000000E+00 -0.50000000000E+03  0.50000000000E+03  0.00000000000E+00 0. -1.
  1000024    1    1    2    0    0  0.13804593923E+03  0.12570825398E+03  0.42731340466E+03  0.50000000000E+03  0.18039957800E+03 0. -1.
 -1000024    1    1    2    0    0 -0.13804593923E+03 -0.12570825398E+03 -0.42731340466E+03  0.50000000000E+03  0.18039957800E+03 0. -1.
</event>
<event>
 4   0  0.1092222E-03  0.2236068E+02  0.7957747E-01  0.1516063E+00
      -11   -1    0    0    0    0  0.00000000000E+00  0.00000000000E+00  0.50000000000E+03  0.50000000000E+03  0.00000000000E+00 0.  1.
       11   -1    0    0    0    0 -0.00000000000E+00 -0.00000000000E+00 -0.50000000000E+03  0.50000000000E+03  0.00000000000E+00 0. -1.
  1000024    1    1    2    0    0 -0.13153166737E+03  0.34906864621E+03  0.27983297334E+03  0.50000000000E+03  0.18039957800E+03 0.  1.
 -1000024    1    1    2    0    0  0.13153166737E+03 -0.34906864621E+03 -0.27983297334E+03  0.50000000000E+03  0.18039957800E+03 0. -1.
</event>
<event>
 4   0  0.6712789E-04  0.2236068E+02  0.7957747E-01  0.1516063E+00
      -11   -1    0    0    0    0  0.00000000000E+00  0.00000000000E+00  0.50000000000E+03  0.50000000000E+03  0.00000000000E+00 0.  1.
       11   -1    0    0    0    0 -0.00000000000E+00 -0.00000000000E+00 -0.50000000000E+03  0.50000000000E+03  0.00000000000E+00 0. -1.
  1000024    1    1    2    0    0  0.38181683906E+03  0.22681764604E+03  0.14221690867E+03  0.50000000000E+03  0.18039957800E+03 0.  1.
 -1000024    1    1    2    0    0 -0.38181683906E+03 -0.22681764604E+03 -0.14221690867E+03  0.50000000000E+03  0.18039957800E+03 0. -1.
</event>
<event>
 4   0  0.1092222E-03  0.2236068E+02  0.7957747E-01  0.1516063E+00
      -11   -1    0    0    0    0  0.00000000000E+00  0.00000000000E+00  0.50000000000E+03  0.50000000000E+03  0.00000000000E+00 0.  1.
       11   -1    0    0    0    0 -0.00000000000E+00 -0.00000000000E+00 -0.50000000000E+03  0.50000000000E+03  0.00000000000E+00 0. -1.
  1000024    1    1    2    0    0 -0.30430962776E+03  0.33162840783E+03  0.12196000094E+03  0.50000000000E+03  0.18039957800E+03 0. -1.
 -1000024    1    1    2    0    0  0.30430962776E+03 -0.33162840783E+03 -0.12196000094E+03  0.50000000000E+03  0.18039957800E+03 0.  1.
</event>
<event>
 4   0  0.1092222E-03  0.2236068E+02  0.7957747E-01  0.1516063E+00
      -11   -1    0    0    0    0  0.00000000000E+00  0.00000000000E+00  0.50000000000E+03  0.50000000000E+03  0.00000000000E+00 0.  1.
       11   -1    0    0    0    0 -0.00000000000E+00 -0.00000000000E+00 -0.50000000000E+03  0.50000000000E+03  0.00000000000E+00 0. -1.
  1000024    1    1    2    0    0  0.92357165194E+01  0.20840560423E+03  0.41705850660E+03  0.50000000000E+03  0.18039957800E+03 0. -1.
 -1000024    1    1    2    0    0 -0.92357165194E+01 -0.20840560423E+03 -0.41705850660E+03  0.50000000000E+03  0.18039957800E+03 0. -1.
</event>
<event>
 4   0  0.6712789E-04  0.2236068E+02  0.7957747E-01  0.1516063E+00
      -11   -1    0    0    0    0  0.00000000000E+00  0.00000000000E+00  0.50000000000E+03  0.50000000000E+03  0.00000000000E+00 0.  1.
       11   -1    0    0    0    0 -0.00000000000E+00 -0.00000000000E+00 -0.50000000000E+03  0.50000000000E+03  0.00000000000E+00 0. -1.
  1000024    1    1    2    0    0  0.27066784003E+03  0.28667252561E+02  0.37864640664E+03  0.50000000000E+03  0.18039957800E+03 0. -1.
 -1000024    1    1    2    0    0 -0.27066784003E+03 -0.28667252561E+02 -0.37864640664E+03  0.50000000000E+03  0.18039957800E+03 0. -1.
</event>
<event>
 4   0  0.6712789E-04  0.2236068E+02  0.7957747E-01  0.1516063E+00
      -11   -1    0    0    0    0  0.00000000000E+00  0.00000000000E+00  0.50000000000E+03  0.50000000000E+03  0.00000000000E+00 0.  1.
       11   -1    0    0    0    0 -0.00000000000E+00 -0.00000000000E+00 -0.50000000000E+03  0.50000000000E+03  0.00000000000E+00 0. -1.
  1000024    1    1    2    0    0 -0.41972892765E+03  0.18599199636E+03 -0.81796068621E+02  0.50000000000E+03  0.18039957800E+03 0.  1.
 -1000024    1    1    2    0    0  0.41972892765E+03 -0.18599199636E+03  0.81796068621E+02  0.50000000000E+03  0.18039957800E+03 0. -1.
</event>
<event>
 4   0  0.7366543E-04  0.2236068E+02  0.7957747E-01  0.1516063E+00
      -11   -1    0    0    0    0  0.00000000000E+00  0.00000000000E+00  0.50000000000E+03  0.50000000000E+03  0.00000000000E+00 0.  1.
       11   -1    0    0    0    0 -0.00000000000E+00 -0.00000000000E+00 -0.50000000000E+03  0.50000000000E+03  0.00000000000E+00 0. -1.
  1000024    1    1    2    0    0 -0.62756190953E+02  0.32062127388E+03  0.33274562580E+03  0.50000000000E+03  0.18039957800E+03 0. -1.
 -1000024    1    1    2    0    0  0.62756190953E+02 -0.32062127388E+03 -0.33274562580E+03  0.50000000000E+03  0.18039957800E+03 0.  1.
</event>
<event>
 4   0  0.6712789E-04  0.2236068E+02  0.7957747E-01  0.1516063E+00
      -11   -1    0    0    0    0  0.00000000000E+00  0.00000000000E+00  0.50000000000E+03  0.50000000000E+03  0.00000000000E+00 0.  1.
       11   -1    0    0    0    0 -0.00000000000E+00 -0.00000000000E+00 -0.50000000000E+03  0.50000000000E+03  0.00000000000E+00 0. -1.
  1000024    1    1    2    0    0 -0.28660453009E+03 -0.94519604570E+02  0.35549947953E+03  0.50000000000E+03  0.18039957800E+03 0.  1.
 -1000024    1    1    2    0    0  0.28660453009E+03  0.94519604570E+02 -0.35549947953E+03  0.50000000000E+03  0.18039957800E+03 0. -1.
</event>
<event>
 4   0  0.7366543E-04  0.2236068E+02  0.7957747E-01  0.1516063E+00
      -11   -1    0    0    0    0  0.00000000000E+00  0.00000000000E+00  0.50000000000E+03  0.50000000000E+03  0.00000000000E+00 0.  1.
       11   -1    0    0    0    0 -0.00000000000E+00 -0.00000000000E+00 -0.50000000000E+03  0.50000000000E+03  0.00000000000E+00 0. -1.
  1000024    1    1    2    0    0  0.14256861689E+03  0.14509604507E+03  0.41961568064E+03  0.50000000000E+03  0.18039957800E+03 0. -1.
 -1000024    1    1    2    0    0 -0.14256861689E+03 -0.14509604507E+03 -0.41961568064E+03  0.50000000000E+03  0.18039957800E+03 0. -1.
</event>
<event>
 4   0  0.1092222E-03  0.2236068E+02  0.7957747E-01  0.1516063E+00
      -11   -1    0    0    0    0  0.00000000000E+00  0.00000000000E+00  0.50000000000E+03  0.50000000000E+03  0.00000000000E+00 0.  1.
       11   -1    0    0    0    0 -0.00000000000E+00 -0.00000000000E+00 -0.50000000000E+03  0.50000000000E+03  0.00000000000E+00 0. -1.
  1000024    1    1    2    0    0  0.19719077831E+03  0.30857170337E+03  0.28871316750E+03  0.50000000000E+03  0.18039957800E+03 0. -1.
 -1000024    1    1    2    0    0 -0.19719077831E+03 -0.30857170337E+03 -0.28871316750E+03  0.50000000000E+03  0.18039957800E+03 0.  1.
</event>
<event>
 4   0  0.6712789E-04  0.2236068E+02  0.7957747E-01  0.1516063E+00
      -11   -1    0    0    0    0  0.00000000000E+00  0.00000000000E+00  0.50000000000E+03  0.50000000000E+03  0.00000000000E+00 0.  1.
       11   -1    0    0    0    0 -0.00000000000E+00 -0.00000000000E+00 -0.50000000000E+03  0.50000000000E+03  0.00000000000E+00 0. -1.
  1000024    1    1    2    0    0  0.17863864406E+03 -0.32399707941E+03  0.28384876192E+03  0.50000000000E+03  0.18039957800E+03 0. -1.
 -1000024    1    1    2    0    0 -0.17863864406E+03  0.32399707941E+03 -0.28384876192E+03  0.50000000000E+03  0.18039957800E+03 0.  1.
</event>
<event>
 4   0  0.6712789E-04  0.2236068E+02  0.7957747E-01  0.1516063E+00
      -11   -1    0    0    0    0  0.00000000000E+00  0.00000000000E+00  0.50000000000E+03  0.50000000000E+03  0.00000000000E+00 0.  1.
       11   -1    0    0    0    0 -0.00000000000E+00 -0.00000000000E+00 -0.50000000000E+03  0.50000000000E+03  0.00000000000E+00 0. -1.
  1000024    1    1    2    0    0 -0.10105938850E+03  0.30615821417E+03  0.33691265953E+03  0.50000000000E+03  0.18039957800E+03 0.  1.
 -1000024    1    1    2    0    0  0.10105938850E+03 -0.30615821417E+03 -0.33691265953E+03  0.50000000000E+03  0.18039957800E+03 0. -1.
</event>
<event>
 4   0  0.1092222E-03  0.2236068E+02  0.7957747E-01  0.1516063E+00
      -11   -1    0    0    0    0  0.00000000000E+00  0.00000000000E+00  0.50000000000E+03  0.50000000000E+03  0.00000000000E+00 0.  1.
       11   -1    0    0    0    0 -0.00000000000E+00 -0.00000000000E+00 -0.50000000000E+03  0.50000000000E+03  0.00000000000E+00 0. -1.
  1000024    1    1    2    0    0 -0.85363346340E+02  0.29708504958E+03  0.34915550214E+03  0.50000000000E+03  0.18039957800E+03 0.  1.
 -1000024    1    1    2    0    0  0.85363346340E+02 -0.29708504958E+03 -0.34915550214E+03  0.50000000000E+03  0.18039957800E+03 0. -1.
</event>
<event>
 4   0  0.6712789E-04  0.2236068E+02  0.7957747E-01  0.1516063E+00
      -11   -1    0    0    0    0  0.00000000000E+00  0.00000000000E+00  0.50000000000E+03  0.50000000000E+03  0.00000000000E+00 0.  1.
       11   -1    0    0    0    0 -0.00000000000E+00 -0.00000000000E+00 -0.50000000000E+03  0.50000000000E+03  0.00000000000E+00 0. -1.
  1000024    1    1    2    0    0 -0.18047435382E+01 -0.40664529690E+03  0.22823745894E+03  0.50000000000E+03  0.18039957800E+03 0. -1.
 -1000024    1    1    2    0    0  0.18047435382E+01  0.40664529690E+03 -0.22823745894E+03  0.50000000000E+03  0.18039957800E+03 0.  1.
</event>
<event>
 4   0  0.1092222E-03  0.2236068E+02  0.7957747E-01  0.1516063E+00
      -11   -1    0    0    0    0  0.00000000000E+00  0.00000000000E+00  0.50000000000E+03  0.50000000000E+03  0.00000000000E+00 0.  1.
       11   -1    0    0    0    0 -0.00000000000E+00 -0.00000000000E+00 -0.50000000000E+03  0.50000000000E+03  0.00000000000E+00 0. -1.
  1000024    1    1    2    0    0  0.28645248792E+03 -0.21326216775E+02  0.36735018293E+03  0.50000000000E+03  0.18039957800E+03 0. -1.
 -1000024    1    1    2    0    0 -0.28645248792E+03  0.21326216775E+02 -0.36735018293E+03  0.50000000000E+03  0.18039957800E+03 0.  1.
</event>
<event>
 4   0  0.6712789E-04  0.2236068E+02  0.7957747E-01  0.1516063E+00
      -11   -1    0    0    0    0  0.00000000000E+00  0.00000000000E+00  0.50000000000E+03  0.50000000000E+03  0.00000000000E+00 0.  1.
       11   -1    0    0    0    0 -0.00000000000E+00 -0.00000000000E+00 -0.50000000000E+03  0.50000000000E+03  0.00000000000E+00 0. -1.
  1000024    1    1    2    0    0  0.23092756091E+03 -0.33265907154E+02  0.40375962316E+03  0.50000000000E+03  0.18039957800E+03 0. -1.
 -1000024    1    1    2    0    0 -0.23092756091E+03  0.33265907154E+02 -0.40375962316E+03  0.50000000000E+03  0.18039957800E+03 0.  1.
</event>
<event>
 4   0  0.1092222E-03  0.2236068E+02  0.7957747E-01  0.1516063E+00
      -11   -1    0    0    0    0  0.00000000000E+00  0.00000000000E+00  0.50000000000E+03  0.50000000000E+03  0.00000000000E+00 0.  1.
       11   -1    0    0    0    0 -0.00000000000E+00 -0.00000000000E+00 -0.50000000000E+03  0.50000000000E+03  0.00000000000E+00 0. -1.
  1000024    1    1    2    0    0 -0.30854139061E+03  0.34926549027E+03  0.16486959832E+02  0.50000000000E+03  0.18039957800E+03 0. -1.
 -1000024    1    1    2    0    0  0.30854139061E+03 -0.34926549027E+03 -0.16486959832E+02  0.50000000000E+03  0.18039957800E+03 0.  1.
</event>
<event>
 4   0  0.1092222E-03  0.2236068E+02  0.7957747E-01  0.1516063E+00
      -11   -1    0    0    0    0  0.00000000000E+00  0.00000000000E+00  0.50000000000E+03  0.50000000000E+03  0.00000000000E+00 0.  1.
       11   -1    0    0    0    0 -0.00000000000E+00 -0.00000000000E+00 -0.50000000000E+03  0.50000000000E+03  0.00000000000E+00 0. -1.
  1000024    1    1    2    0    0  0.26321171178E+03  0.35005950501E+03  0.16010599612E+03  0.50000000000E+03  0.18039957800E+03 0.  1.
 -1000024    1    1    2    0    0 -0.26321171178E+03 -0.35005950501E+03 -0.16010599612E+03  0.50000000000E+03  0.18039957800E+03 0. -1.
</event>
<event>
 4   0  0.1092222E-03  0.2236068E+02  0.7957747E-01  0.1516063E+00
      -11   -1    0    0    0    0  0.00000000000E+00  0.00000000000E+00  0.50000000000E+03  0.50000000000E+03  0.00000000000E+00 0.  1.
       11   -1    0    0    0    0 -0.00000000000E+00 -0.00000000000E+00 -0.50000000000E+03  0.50000000000E+03  0.00000000000E+00 0. -1.
  1000024    1    1    2    0    0 -0.82035788588E+02 -0.17564887687E+03  0.42411507130E+03  0.50000000000E+03  0.18039957800E+03 0.  1.
 -1000024    1    1    2    0    0  0.82035788588E+02  0.17564887687E+03 -0.42411507130E+03  0.50000000000E+03  0.18039957800E+03 0.  1.
</event>
<event>
 4   0  0.1092222E-03  0.2236068E+02  0.7957747E-01  0.1516063E+00
      -11   -1    0    0    0    0  0.00000000000E+00  0.00000000000E+00  0.50000000000E+03  0.50000000000E+03  0.00000000000E+00 0.  1.
       11   -1    0    0    0    0 -0.00000000000E+00 -0.00000000000E+00 -0.50000000000E+03  0.50000000000E+03  0.00000000000E+00 0. -1.
  1000024    1    1    2    0    0  0.37920500835E+03 -0.26555700757E+03  0.56027043747E+02  0.50000000000E+03  0.18039957800E+03 0. -1.
 -1000024    1    1    2    0    0 -0.37920500835E+03  0.26555700757E+03 -0.56027043747E+02  0.50000000000E+03  0.18039957800E+03 0.  1.
</event>
<event>
 4   0  0.7366543E-04  0.2236068E+02  0.7957747E-01  0.1516063E+00
      -11   -1    0    0    0    0  0.00000000000E+00  0.00000000000E+00  0.50000000000E+03  0.50000000000E+03  0.00000000000E+00 0.  1.
       11   -1    0    0    0    0 -0.00000000000E+00 -0.00000000000E+00 -0.50000000000E+03  0.50000000000E+03  0.00000000000E+00 0. -1.
  1000024    1    1    2    0    0  0.28918462046E+03 -0.11430247264E+03  0.34750998877E+03  0.50000000000E+03  0.18039957800E+03 0. -1.
 -1000024    1    1    2    0    0 -0.28918462046E+03  0.11430247264E+03 -0.34750998877E+03  0.50000000000E+03  0.18039957800E+03 0.  1.
</event>
<event>
 4   0  0.7366543E-04  0.2236068E+02  0.7957747E-01  0.1516063E+00
      -11   -1    0    0    0    0  0.00000000000E+00  0.00000000000E+00  0.50000000000E+03  0.50000000000E+03  0.00000000000E+00 0.  1.
       11   -1    0    0    0    0 -0.00000000000E+00 -0.00000000000E+00 -0.50000000000E+03  0.50000000000E+03  0.00000000000E+00 0. -1.
  1000024    1    1    2    0    0 -0.24390679366E+03  0.37557293866E+03  0.13004013230E+03  0.50000000000E+03  0.18039957800E+03 0. -1.
 -1000024    1    1    2    0    0  0.24390679366E+03 -0.37557293866E+03 -0.13004013230E+03  0.50000000000E+03  0.18039957800E+03 0.  1.
</event>
<event>
 4   0  0.6712789E-04  0.2236068E+02  0.7957747E-01  0.1516063E+00
      -11   -1    0    0    0    0  0.00000000000E+00  0.00000000000E+00  0.50000000000E+03  0.50000000000E+03  0.00000000000E+00 0.  1.
       11   -1    0    0    0    0 -0.00000000000E+00 -0.00000000000E+00 -0.50000000000E+03  0.50000000000E+03  0.00000000000E+00 0. -1.
  1000024    1    1    2    0    0  0.27755631457E+03 -0.13458064984E+03 -0.34972350963E+03  0.50000000000E+03  0.18039957800E+03 0.  1.
 -1000024    1    1    2    0    0 -0.27755631457E+03  0.13458064984E+03  0.34972350963E+03  0.50000000000E+03  0.18039957800E+03 0. -1.
</event>
<event>
 4   0  0.6712789E-04  0.2236068E+02  0.7957747E-01  0.1516063E+00
      -11   -1    0    0    0    0  0.00000000000E+00  0.00000000000E+00  0.50000000000E+03  0.50000000000E+03  0.00000000000E+00 0.  1.
       11   -1    0    0    0    0 -0.00000000000E+00 -0.00000000000E+00 -0.50000000000E+03  0.50000000000E+03  0.00000000000E+00 0. -1.
  1000024    1    1    2    0    0 -0.23172722729E+03 -0.90928058667E+02  0.39432292925E+03  0.50000000000E+03  0.18039957800E+03 0. -1.
 -1000024    1    1    2    0    0  0.23172722729E+03  0.90928058667E+02 -0.39432292925E+03  0.50000000000E+03  0.18039957800E+03 0.  1.
</event>
<event>
 4   0  0.7366543E-04  0.2236068E+02  0.7957747E-01  0.1516063E+00
      -11   -1    0    0    0    0  0.00000000000E+00  0.00000000000E+00  0.50000000000E+03  0.50000000000E+03  0.00000000000E+00 0.  1.
       11   -1    0    0    0    0 -0.00000000000E+00 -0.00000000000E+00 -0.50000000000E+03  0.50000000000E+03  0.00000000000E+00 0. -1.
  1000024    1    1    2    0    0  0.36352987797E+03  0.33814064104E+02  0.29010106713E+03  0.50000000000E+03  0.18039957800E+03 0. -1.
 -1000024    1    1    2    0    0 -0.36352987797E+03 -0.33814064104E+02 -0.29010106713E+03  0.50000000000E+03  0.18039957800E+03 0.  1.
</event>
<event>
 4   0  0.7366543E-04  0.2236068E+02  0.7957747E-01  0.1516063E+00
      -11   -1    0    0    0    0  0.00000000000E+00  0.00000000000E+00  0.50000000000E+03  0.50000000000E+03  0.00000000000E+00 0.  1.
       11   -1    0    0    0    0 -0.00000000000E+00 -0.00000000000E+00 -0.50000000000E+03  0.50000000000E+03  0.00000000000E+00 0. -1.
  1000024    1    1    2    0    0 -0.43082810253E+03  0.15227085935E+03  0.93041516136E+02  0.50000000000E+03  0.18039957800E+03 0. -1.
 -1000024    1    1    2    0    0  0.43082810253E+03 -0.15227085935E+03 -0.93041516136E+02  0.50000000000E+03  0.18039957800E+03 0.  1.
</event>
<event>
 4   0  0.7366543E-04  0.2236068E+02  0.7957747E-01  0.1516063E+00
      -11   -1    0    0    0    0  0.00000000000E+00  0.00000000000E+00  0.50000000000E+03  0.50000000000E+03  0.00000000000E+00 0.  1.
       11   -1    0    0    0    0 -0.00000000000E+00 -0.00000000000E+00 -0.50000000000E+03  0.50000000000E+03  0.00000000000E+00 0. -1.
  1000024    1    1    2    0    0  0.19498934700E+03  0.25998125420E+03  0.33443219683E+03  0.50000000000E+03  0.18039957800E+03 0. -1.
 -1000024    1    1    2    0    0 -0.19498934700E+03 -0.25998125420E+03 -0.33443219683E+03  0.50000000000E+03  0.18039957800E+03 0.  1.
</event>
<event>
 4   0  0.1092222E-03  0.2236068E+02  0.7957747E-01  0.1516063E+00
      -11   -1    0    0    0    0  0.00000000000E+00  0.00000000000E+00  0.50000000000E+03  0.50000000000E+03  0.00000000000E+00 0.  1.
       11   -1    0    0    0    0 -0.00000000000E+00 -0.00000000000E+00 -0.50000000000E+03  0.50000000000E+03  0.00000000000E+00 0. -1.
  1000024    1    1    2    0    0  0.22850607706E+03  0.40617962052E+03 -0.16095989375E+02  0.50000000000E+03  0.18039957800E+03 0. -1.
 -1000024    1    1    2    0    0 -0.22850607706E+03 -0.40617962052E+03  0.16095989375E+02  0.50000000000E+03  0.18039957800E+03 0.  1.
</event>
<event>
 4   0  0.1092222E-03  0.2236068E+02  0.7957747E-01  0.1516063E+00
      -11   -1    0    0    0    0  0.00000000000E+00  0.00000000000E+00  0.50000000000E+03  0.50000000000E+03  0.00000000000E+00 0.  1.
       11   -1    0    0    0    0 -0.00000000000E+00 -0.00000000000E+00 -0.50000000000E+03  0.50000000000E+03  0.00000000000E+00 0. -1.
  1000024    1    1    2    0    0 -0.19700161598E+03 -0.39936911382E+03 -0.13838593312E+03  0.50000000000E+03  0.18039957800E+03 0. -1.
 -1000024    1    1    2    0    0  0.19700161598E+03  0.39936911382E+03  0.13838593312E+03  0.50000000000E+03  0.18039957800E+03 0.  1.
</event>
<event>
 4   0  0.7366543E-04  0.2236068E+02  0.7957747E-01  0.1516063E+00
      -11   -1    0    0    0    0  0.00000000000E+00  0.00000000000E+00  0.50000000000E+03  0.50000000000E+03  0.00000000000E+00 0.  1.
       11   -1    0    0    0    0 -0.00000000000E+00 -0.00000000000E+00 -0.50000000000E+03  0.50000000000E+03  0.00000000000E+00 0. -1.
  1000024    1    1    2    0    0  0.48995657544E+02  0.29243220453E+03  0.35991502268E+03  0.50000000000E+03  0.18039957800E+03 0.  1.
 -1000024    1    1    2    0    0 -0.48995657544E+02 -0.29243220453E+03 -0.35991502268E+03  0.50000000000E+03  0.18039957800E+03 0. -1.
</event>
<event>
 4   0  0.1092222E-03  0.2236068E+02  0.7957747E-01  0.1516063E+00
      -11   -1    0    0    0    0  0.00000000000E+00  0.00000000000E+00  0.50000000000E+03  0.50000000000E+03  0.00000000000E+00 0.  1.
       11   -1    0    0    0    0 -0.00000000000E+00 -0.00000000000E+00 -0.50000000000E+03  0.50000000000E+03  0.00000000000E+00 0. -1.
  1000024    1    1    2    0    0 -0.43895190724E+03 -0.91087209637E+01  0.15714403135E+03  0.50000000000E+03  0.18039957800E+03 0. -1.
 -1000024    1    1    2    0    0  0.43895190724E+03  0.91087209637E+01 -0.15714403135E+03  0.50000000000E+03  0.18039957800E+03 0.  1.
</event>
<event>
 4   0  0.7366543E-04  0.2236068E+02  0.7957747E-01  0.1516063E+00
      -11   -1    0    0    0    0  0.00000000000E+00  0.00000000000E+00  0.50000000000E+03  0.50000000000E+03  0.00000000000E+00 0.  1.
       11   -1    0    0    0    0 -0.00000000000E+00 -0.00000000000E+00 -0.50000000000E+03  0.50000000000E+03  0.00000000000E+00 0. -1.
  1000024    1    1    2    0    0 -0.41067470805E+01 -0.32144580219E+03  0.33780426750E+03  0.50000000000E+03  0.18039957800E+03 0.  1.
 -1000024    1    1    2    0    0  0.41067470805E+01  0.32144580219E+03 -0.33780426750E+03  0.50000000000E+03  0.18039957800E+03 0. -1.
</event>
<event>
 4   0  0.1092222E-03  0.2236068E+02  0.7957747E-01  0.1516063E+00
      -11   -1    0    0    0    0  0.00000000000E+00  0.00000000000E+00  0.50000000000E+03  0.50000000000E+03  0.00000000000E+00 0.  1.
       11   -1    0    0    0    0 -0.00000000000E+00 -0.00000000000E+00 -0.50000000000E+03  0.50000000000E+03  0.00000000000E+00 0. -1.
  1000024    1    1    2    0    0 -0.41703767714E+03 -0.17733206075E+03  0.10994957179E+03  0.50000000000E+03  0.18039957800E+03 0. -1.
 -1000024    1    1    2    0    0  0.41703767714E+03  0.17733206075E+03 -0.10994957179E+03  0.50000000000E+03  0.18039957800E+03 0.  1.
</event>
<event>
 4   0  0.1092222E-03  0.2236068E+02  0.7957747E-01  0.1516063E+00
      -11   -1    0    0    0    0  0.00000000000E+00  0.00000000000E+00  0.50000000000E+03  0.50000000000E+03  0.00000000000E+00 0.  1.
       11   -1    0    0    0    0 -0.00000000000E+00 -0.00000000000E+00 -0.50000000000E+03  0.50000000000E+03  0.00000000000E+00 0. -1.
  1000024    1    1    2    0    0  0.18612399909E+03 -0.42548015055E+03  0.42195861205E+02  0.50000000000E+03  0.18039957800E+03 0.  1.
 -1000024    1    1    2    0    0 -0.18612399909E+03  0.42548015055E+03 -0.42195861205E+02  0.50000000000E+03  0.18039957800E+03 0. -1.
</event>
<event>
 4   0  0.1092222E-03  0.2236068E+02  0.7957747E-01  0.1516063E+00
      -11   -1    0    0    0    0  0.00000000000E+00  0.00000000000E+00  0.50000000000E+03  0.50000000000E+03  0.00000000000E+00 0.  1.
       11   -1    0    0    0    0 -0.00000000000E+00 -0.00000000000E+00 -0.50000000000E+03  0.50000000000E+03  0.00000000000E+00 0. -1.
  1000024    1    1    2    0    0  0.38004970276E+03  0.24158196312E+03  0.12106349900E+03  0.50000000000E+03  0.18039957800E+03 0.  1.
 -1000024    1    1    2    0    0 -0.38004970276E+03 -0.24158196312E+03 -0.12106349900E+03  0.50000000000E+03  0.18039957800E+03 0. -1.
</event>
<event>
 4   0  0.1092222E-03  0.2236068E+02  0.7957747E-01  0.1516063E+00
      -11   -1    0    0    0    0  0.00000000000E+00  0.00000000000E+00  0.50000000000E+03  0.50000000000E+03  0.00000000000E+00 0.  1.
       11   -1    0    0    0    0 -0.00000000000E+00 -0.00000000000E+00 -0.50000000000E+03  0.50000000000E+03  0.00000000000E+00 0. -1.
  1000024    1    1    2    0    0  0.16342132064E+03  0.14209306270E+01  0.43674643121E+03  0.50000000000E+03  0.18039957800E+03 0. -1.
 -1000024    1    1    2    0    0 -0.16342132064E+03 -0.14209306270E+01 -0.43674643121E+03  0.50000000000E+03  0.18039957800E+03 0. -1.
</event>
<event>
 4   0  0.1092222E-03  0.2236068E+02  0.7957747E-01  0.1516063E+00
      -11   -1    0    0    0    0  0.00000000000E+00  0.00000000000E+00  0.50000000000E+03  0.50000000000E+03  0.00000000000E+00 0.  1.
       11   -1    0    0    0    0 -0.00000000000E+00 -0.00000000000E+00 -0.50000000000E+03  0.50000000000E+03  0.00000000000E+00 0. -1.
  1000024    1    1    2    0    0 -0.43731856773E+03 -0.49200548611E+02  0.15423283888E+03  0.50000000000E+03  0.18039957800E+03 0. -1.
 -1000024    1    1    2    0    0  0.43731856773E+03  0.49200548611E+02 -0.15423283888E+03  0.50000000000E+03  0.18039957800E+03 0.  1.
</event>
<event>
 4   0  0.6712789E-04  0.2236068E+02  0.7957747E-01  0.1516063E+00
      -11   -1    0    0    0    0  0.00000000000E+00  0.00000000000E+00  0.50000000000E+03  0.50000000000E+03  0.00000000000E+00 0.  1.
       11   -1    0    0    0    0 -0.00000000000E+00 -0.00000000000E+00 -0.50000000000E+03  0.50000000000E+03  0.00000000000E+00 0. -1.
  1000024    1    1    2    0    0 -0.22159335070E+03 -0.39531314332E+03  0.10990858884E+03  0.50000000000E+03  0.18039957800E+03 0. -1.
 -1000024    1    1    2    0    0  0.22159335070E+03  0.39531314332E+03 -0.10990858884E+03  0.50000000000E+03  0.18039957800E+03 0.  1.
</event>
<event>
 4   0  0.6712789E-04  0.2236068E+02  0.7957747E-01  0.1516063E+00
      -11   -1    0    0    0    0  0.00000000000E+00  0.00000000000E+00  0.50000000000E+03  0.50000000000E+03  0.00000000000E+00 0.  1.
       11   -1    0    0    0    0 -0.00000000000E+00 -0.00000000000E+00 -0.50000000000E+03  0.50000000000E+03  0.00000000000E+00 0. -1.
  1000024    1    1    2    0    0 -0.36806464532E+03 -0.28866929835E+02  0.28487033802E+03  0.50000000000E+03  0.18039957800E+03 0. -1.
 -1000024    1    1    2    0    0  0.36806464532E+03  0.28866929835E+02 -0.28487033802E+03  0.50000000000E+03  0.18039957800E+03 0.  1.
</event>
<event>
 4   0  0.6712789E-04  0.2236068E+02  0.7957747E-01  0.1516063E+00
      -11   -1    0    0    0    0  0.00000000000E+00  0.00000000000E+00  0.50000000000E+03  0.50000000000E+03  0.00000000000E+00 0.  1.
       11   -1    0    0    0    0 -0.00000000000E+00 -0.00000000000E+00 -0.50000000000E+03  0.50000000000E+03  0.00000000000E+00 0. -1.
  1000024    1    1    2    0    0  0.23514799755E+03  0.75804828971E+02  0.39549341260E+03  0.50000000000E+03  0.18039957800E+03 0. -1.
 -1000024    1    1    2    0    0 -0.23514799755E+03 -0.75804828971E+02 -0.39549341260E+03  0.50000000000E+03  0.18039957800E+03 0. -1.
</event>
<event>
 4   0  0.7366543E-04  0.2236068E+02  0.7957747E-01  0.1516063E+00
      -11   -1    0    0    0    0  0.00000000000E+00  0.00000000000E+00  0.50000000000E+03  0.50000000000E+03  0.00000000000E+00 0.  1.
       11   -1    0    0    0    0 -0.00000000000E+00 -0.00000000000E+00 -0.50000000000E+03  0.50000000000E+03  0.00000000000E+00 0. -1.
  1000024    1    1    2    0    0  0.20372052744E+03  0.51464412663E+02  0.41629959547E+03  0.50000000000E+03  0.18039957800E+03 0. -1.
 -1000024    1    1    2    0    0 -0.20372052744E+03 -0.51464412663E+02 -0.41629959547E+03  0.50000000000E+03  0.18039957800E+03 0.  1.
</event>
<event>
 4   0  0.7366543E-04  0.2236068E+02  0.7957747E-01  0.1516063E+00
      -11   -1    0    0    0    0  0.00000000000E+00  0.00000000000E+00  0.50000000000E+03  0.50000000000E+03  0.00000000000E+00 0.  1.
       11   -1    0    0    0    0 -0.00000000000E+00 -0.00000000000E+00 -0.50000000000E+03  0.50000000000E+03  0.00000000000E+00 0. -1.
  1000024    1    1    2    0    0  0.92032376813E+02 -0.26887969828E+03  0.36971575802E+03  0.50000000000E+03  0.18039957800E+03 0.  1.
 -1000024    1    1    2    0    0 -0.92032376813E+02  0.26887969828E+03 -0.36971575802E+03  0.50000000000E+03  0.18039957800E+03 0. -1.
</event>
<event>
 4   0  0.6712789E-04  0.2236068E+02  0.7957747E-01  0.1516063E+00
      -11   -1    0    0    0    0  0.00000000000E+00  0.00000000000E+00  0.50000000000E+03  0.50000000000E+03  0.00000000000E+00 0.  1.
       11   -1    0    0    0    0 -0.00000000000E+00 -0.00000000000E+00 -0.50000000000E+03  0.50000000000E+03  0.00000000000E+00 0. -1.
  1000024    1    1    2    0    0 -0.21074485487E+03  0.34147989680E+03  0.23755857906E+03  0.50000000000E+03  0.18039957800E+03 0. -1.
 -1000024    1    1    2    0    0  0.21074485487E+03 -0.34147989680E+03 -0.23755857906E+03  0.50000000000E+03  0.18039957800E+03 0.  1.
</event>
<event>
 4   0  0.7366543E-04  0.2236068E+02  0.7957747E-01  0.1516063E+00
      -11   -1    0    0    0    0  0.00000000000E+00  0.00000000000E+00  0.50000000000E+03  0.50000000000E+03  0.00000000000E+00 0.  1.
       11   -1    0    0    0    0 -0.00000000000E+00 -0.00000000000E+00 -0.50000000000E+03  0.50000000000E+03  0.00000000000E+00 0. -1.
  1000024    1    1    2    0    0  0.21897757229E+03 -0.11769355387E+03  0.39452888674E+03  0.50000000000E+03  0.18039957800E+03 0. -1.
 -1000024    1    1    2    0    0 -0.21897757229E+03  0.11769355387E+03 -0.39452888674E+03  0.50000000000E+03  0.18039957800E+03 0.  1.
</event>
<event>
 4   0  0.1092222E-03  0.2236068E+02  0.7957747E-01  0.1516063E+00
      -11   -1    0    0    0    0  0.00000000000E+00  0.00000000000E+00  0.50000000000E+03  0.50000000000E+03  0.00000000000E+00 0.  1.
       11   -1    0    0    0    0 -0.00000000000E+00 -0.00000000000E+00 -0.50000000000E+03  0.50000000000E+03  0.00000000000E+00 0. -1.
  1000024    1    1    2    0    0 -0.26139901652E+03  0.33685352052E+02  0.38469708015E+03  0.50000000000E+03  0.18039957800E+03 0.  1.
 -1000024    1    1    2    0    0  0.26139901652E+03 -0.33685352052E+02 -0.38469708015E+03  0.50000000000E+03  0.18039957800E+03 0.  1.
</event>
<event>
 4   0  0.1092222E-03  0.2236068E+02  0.7957747E-01  0.1516063E+00
      -11   -1    0    0    0    0  0.00000000000E+00  0.00000000000E+00  0.50000000000E+03  0.50000000000E+03  0.00000000000E+00 0.  1.
       11   -1    0    0    0    0 -0.00000000000E+00 -0.00000000000E+00 -0.50000000000E+03  0.50000000000E+03  0.00000000000E+00 0. -1.
  1000024    1    1    2    0    0 -0.28089509244E+03  0.30927412317E+03  0.20713149456E+03  0.50000000000E+03  0.18039957800E+03 0. -1.
 -1000024    1    1    2    0    0  0.28089509244E+03 -0.30927412317E+03 -0.20713149456E+03  0.50000000000E+03  0.18039957800E+03 0.  1.
</event>
<event>
 4   0  0.1092222E-03  0.2236068E+02  0.7957747E-01  0.1516063E+00
      -11   -1    0    0    0    0  0.00000000000E+00  0.00000000000E+00  0.50000000000E+03  0.50000000000E+03  0.00000000000E+00 0.  1.
       11   -1    0    0    0    0 -0.00000000000E+00 -0.00000000000E+00 -0.50000000000E+03  0.50000000000E+03  0.00000000000E+00 0. -1.
  1000024    1    1    2    0    0  0.57420941216E+02 -0.24508432898E+03  0.39254617493E+03  0.50000000000E+03  0.18039957800E+03 0.  1.
 -1000024    1    1    2    0    0 -0.57420941216E+02  0.24508432898E+03 -0.39254617493E+03  0.50000000000E+03  0.18039957800E+03 0. -1.
</event>
<event>
 4   0  0.1092222E-03  0.2236068E+02  0.7957747E-01  0.1516063E+00
      -11   -1    0    0    0    0  0.00000000000E+00  0.00000000000E+00  0.50000000000E+03  0.50000000000E+03  0.00000000000E+00 0.  1.
       11   -1    0    0    0    0 -0.00000000000E+00 -0.00000000000E+00 -0.50000000000E+03  0.50000000000E+03  0.00000000000E+00 0. -1.
  1000024    1    1    2    0    0 -0.60349653382E+02 -0.43032262563E+03  0.16922278058E+03  0.50000000000E+03  0.18039957800E+03 0. -1.
 -1000024    1    1    2    0    0  0.60349653382E+02  0.43032262563E+03 -0.16922278058E+03  0.50000000000E+03  0.18039957800E+03 0.  1.
</event>
<event>
 4   0  0.6712789E-04  0.2236068E+02  0.7957747E-01  0.1516063E+00
      -11   -1    0    0    0    0  0.00000000000E+00  0.00000000000E+00  0.50000000000E+03  0.50000000000E+03  0.00000000000E+00 0.  1.
       11   -1    0    0    0    0 -0.00000000000E+00 -0.00000000000E+00 -0.50000000000E+03  0.50000000000E+03  0.00000000000E+00 0. -1.
  1000024    1    1    2    0    0 -0.32760816851E+03 -0.18763446870E+03  0.27371917423E+03  0.50000000000E+03  0.18039957800E+03 0.  1.
 -1000024    1    1    2    0    0  0.32760816851E+03  0.18763446870E+03 -0.27371917423E+03  0.50000000000E+03  0.18039957800E+03 0. -1.
</event>
<event>
 4   0  0.7366543E-04  0.2236068E+02  0.7957747E-01  0.1516063E+00
      -11   -1    0    0    0    0  0.00000000000E+00  0.00000000000E+00  0.50000000000E+03  0.50000000000E+03  0.00000000000E+00 0.  1.
       11   -1    0    0    0    0 -0.00000000000E+00 -0.00000000000E+00 -0.50000000000E+03  0.50000000000E+03  0.00000000000E+00 0. -1.
  1000024    1    1    2    0    0  0.55684044955E+02  0.42538738214E+03  0.18275900664E+03  0.50000000000E+03  0.18039957800E+03 0. -1.
 -1000024    1    1    2    0    0 -0.55684044955E+02 -0.42538738214E+03 -0.18275900664E+03  0.50000000000E+03  0.18039957800E+03 0.  1.
</event>
<event>
 4   0  0.6712789E-04  0.2236068E+02  0.7957747E-01  0.1516063E+00
      -11   -1    0    0    0    0  0.00000000000E+00  0.00000000000E+00  0.50000000000E+03  0.50000000000E+03  0.00000000000E+00 0.  1.
       11   -1    0    0    0    0 -0.00000000000E+00 -0.00000000000E+00 -0.50000000000E+03  0.50000000000E+03  0.00000000000E+00 0. -1.
  1000024    1    1    2    0    0 -0.18045974877E+03  0.60143641694E+02  0.42576168651E+03  0.50000000000E+03  0.18039957800E+03 0.  1.
 -1000024    1    1    2    0    0  0.18045974877E+03 -0.60143641694E+02 -0.42576168651E+03  0.50000000000E+03  0.18039957800E+03 0.  1.
</event>
<event>
 4   0  0.1092222E-03  0.2236068E+02  0.7957747E-01  0.1516063E+00
      -11   -1    0    0    0    0  0.00000000000E+00  0.00000000000E+00  0.50000000000E+03  0.50000000000E+03  0.00000000000E+00 0.  1.
       11   -1    0    0    0    0 -0.00000000000E+00 -0.00000000000E+00 -0.50000000000E+03  0.50000000000E+03  0.00000000000E+00 0. -1.
  1000024    1    1    2    0    0  0.13271302725E+03 -0.36842196243E+03  0.25319656841E+03  0.50000000000E+03  0.18039957800E+03 0. -1.
 -1000024    1    1    2    0    0 -0.13271302725E+03  0.36842196243E+03 -0.25319656841E+03  0.50000000000E+03  0.18039957800E+03 0.  1.
</event>
<event>
 4   0  0.1092222E-03  0.2236068E+02  0.7957747E-01  0.1516063E+00
      -11   -1    0    0    0    0  0.00000000000E+00  0.00000000000E+00  0.50000000000E+03  0.50000000000E+03  0.00000000000E+00 0.  1.
       11   -1    0    0    0    0 -0.00000000000E+00 -0.00000000000E+00 -0.50000000000E+03  0.50000000000E+03  0.00000000000E+00 0. -1.
  1000024    1    1    2    0    0 -0.26254101905E+03  0.30436665118E+03  0.23640885607E+03  0.50000000000E+03  0.18039957800E+03 0.  1.
 -1000024    1    1    2    0    0  0.26254101905E+03 -0.30436665118E+03 -0.23640885607E+03  0.50000000000E+03  0.18039957800E+03 0. -1.
</event>
<event>
 4   0  0.1092222E-03  0.2236068E+02  0.7957747E-01  0.1516063E+00
      -11   -1    0    0    0    0  0.00000000000E+00  0.00000000000E+00  0.50000000000E+03  0.50000000000E+03  0.00000000000E+00 0.  1.
       11   -1    0    0    0    0 -0.00000000000E+00 -0.00000000000E+00 -0.50000000000E+03  0.50000000000E+03  0.00000000000E+00 0. -1.
  1000024    1    1    2    0    0 -0.45221644989E+03 -0.61133643066E+02  0.96015375789E+02  0.50000000000E+03  0.18039957800E+03 0. -1.
 -1000024    1    1    2    0    0  0.45221644989E+03  0.61133643066E+02 -0.96015375789E+02  0.50000000000E+03  0.18039957800E+03 0.  1.
</event>
<event>
 4   0  0.6712789E-04  0.2236068E+02  0.7957747E-01  0.1516063E+00
      -11   -1    0    0    0    0  0.00000000000E+00  0.00000000000E+00  0.50000000000E+03  0.50000000000E+03  0.00000000000E+00 0.  1.
       11   -1    0    0    0    0 -0.00000000000E+00 -0.00000000000E+00 -0.50000000000E+03  0.50000000000E+03  0.00000000000E+00 0. -1.
  1000024    1    1    2    0    0 -0.34592903114E+02 -0.17578607343E+03  0.43053290199E+03  0.50000000000E+03  0.18039957800E+03 0. -1.
 -1000024    1    1    2    0    0  0.34592903114E+02  0.17578607343E+03 -0.43053290199E+03  0.50000000000E+03  0.18039957800E+03 0.  1.
</event>
<event>
 4   0  0.7366543E-04  0.2236068E+02  0.7957747E-01  0.1516063E+00
      -11   -1    0    0    0    0  0.00000000000E+00  0.00000000000E+00  0.50000000000E+03  0.50000000000E+03  0.00000000000E+00 0.  1.
       11   -1    0    0    0    0 -0.00000000000E+00 -0.00000000000E+00 -0.50000000000E+03  0.50000000000E+03  0.00000000000E+00 0. -1.
  1000024    1    1    2    0    0  0.34826107722E+03  0.12666540605E+03  0.28306552115E+03  0.50000000000E+03  0.18039957800E+03 0.  1.
 -1000024    1    1    2    0    0 -0.34826107722E+03 -0.12666540605E+03 -0.28306552115E+03  0.50000000000E+03  0.18039957800E+03 0. -1.
</event>
<event>
 4   0  0.1092222E-03  0.2236068E+02  0.7957747E-01  0.1516063E+00
      -11   -1    0    0    0    0  0.00000000000E+00  0.00000000000E+00  0.50000000000E+03  0.50000000000E+03  0.00000000000E+00 0.  1.
       11   -1    0    0    0    0 -0.00000000000E+00 -0.00000000000E+00 -0.50000000000E+03  0.50000000000E+03  0.00000000000E+00 0. -1.
  1000024    1    1    2    0    0 -0.46606398214E+03 -0.17487257756E+01 -0.15404504907E+02  0.50000000000E+03  0.18039957800E+03 0.  1.
 -1000024    1    1    2    0    0  0.46606398214E+03  0.17487257756E+01  0.15404504907E+02  0.50000000000E+03  0.18039957800E+03 0. -1.
</event>
<event>
 4   0  0.1092222E-03  0.2236068E+02  0.7957747E-01  0.1516063E+00
      -11   -1    0    0    0    0  0.00000000000E+00  0.00000000000E+00  0.50000000000E+03  0.50000000000E+03  0.00000000000E+00 0.  1.
       11   -1    0    0    0    0 -0.00000000000E+00 -0.00000000000E+00 -0.50000000000E+03  0.50000000000E+03  0.00000000000E+00 0. -1.
  1000024    1    1    2    0    0 -0.22782236677E+03 -0.36966632523E+03  0.16999932190E+03  0.50000000000E+03  0.18039957800E+03 0. -1.
 -1000024    1    1    2    0    0  0.22782236677E+03  0.36966632523E+03 -0.16999932190E+03  0.50000000000E+03  0.18039957800E+03 0.  1.
</event>
<event>
 4   0  0.1092222E-03  0.2236068E+02  0.7957747E-01  0.1516063E+00
      -11   -1    0    0    0    0  0.00000000000E+00  0.00000000000E+00  0.50000000000E+03  0.50000000000E+03  0.00000000000E+00 0.  1.
       11   -1    0    0    0    0 -0.00000000000E+00 -0.00000000000E+00 -0.50000000000E+03  0.50000000000E+03  0.00000000000E+00 0. -1.
  1000024    1    1    2    0    0  0.45098121546E+03 -0.10482532694E+03 -0.55530049475E+02  0.50000000000E+03  0.18039957800E+03 0.  1.
 -1000024    1    1    2    0    0 -0.45098121546E+03  0.10482532694E+03  0.55530049475E+02  0.50000000000E+03  0.18039957800E+03 0. -1.
</event>
<event>
 4   0  0.1092222E-03  0.2236068E+02  0.7957747E-01  0.1516063E+00
      -11   -1    0    0    0    0  0.00000000000E+00  0.00000000000E+00  0.50000000000E+03  0.50000000000E+03  0.00000000000E+00 0.  1.
       11   -1    0    0    0    0 -0.00000000000E+00 -0.00000000000E+00 -0.50000000000E+03  0.50000000000E+03  0.00000000000E+00 0. -1.
  1000024    1    1    2    0    0 -0.21326619869E+03 -0.30709240433E+03  0.27868938974E+03  0.50000000000E+03  0.18039957800E+03 0. -1.
 -1000024    1    1    2    0    0  0.21326619869E+03  0.30709240433E+03 -0.27868938974E+03  0.50000000000E+03  0.18039957800E+03 0. -1.
</event>
<event>
 4   0  0.1092222E-03  0.2236068E+02  0.7957747E-01  0.1516063E+00
      -11   -1    0    0    0    0  0.00000000000E+00  0.00000000000E+00  0.50000000000E+03  0.50000000000E+03  0.00000000000E+00 0.  1.
       11   -1    0    0    0    0 -0.00000000000E+00 -0.00000000000E+00 -0.50000000000E+03  0.50000000000E+03  0.00000000000E+00 0. -1.
  1000024    1    1    2    0    0 -0.41059744071E+03 -0.16273950684E+03 -0.14960476881E+03  0.50000000000E+03  0.18039957800E+03 0. -1.
 -1000024    1    1    2    0    0  0.41059744071E+03  0.16273950684E+03  0.14960476881E+03  0.50000000000E+03  0.18039957800E+03 0.  1.
</event>
<event>
 4   0  0.6712789E-04  0.2236068E+02  0.7957747E-01  0.1516063E+00
      -11   -1    0    0    0    0  0.00000000000E+00  0.00000000000E+00  0.50000000000E+03  0.50000000000E+03  0.00000000000E+00 0.  1.
       11   -1    0    0    0    0 -0.00000000000E+00 -0.00000000000E+00 -0.50000000000E+03  0.50000000000E+03  0.00000000000E+00 0. -1.
  1000024    1    1    2    0    0  0.45480996090E+03 -0.93066836006E+02  0.44073299843E+02  0.50000000000E+03  0.18039957800E+03 0.  1.
 -1000024    1    1    2    0    0 -0.45480996090E+03  0.93066836006E+02 -0.44073299843E+02  0.50000000000E+03  0.18039957800E+03 0. -1.
</event>
<event>
 4   0  0.7366543E-04  0.2236068E+02  0.7957747E-01  0.1516063E+00
      -11   -1    0    0    0    0  0.00000000000E+00  0.00000000000E+00  0.50000000000E+03  0.50000000000E+03  0.00000000000E+00 0.  1.
       11   -1    0    0    0    0 -0.00000000000E+00 -0.00000000000E+00 -0.50000000000E+03  0.50000000000E+03  0.00000000000E+00 0. -1.
  1000024    1    1    2    0    0  0.24690199338E+03 -0.24127804862E+03  0.31349689181E+03  0.50000000000E+03  0.18039957800E+03 0.  1.
 -1000024    1    1    2    0    0 -0.24690199338E+03  0.24127804862E+03 -0.31349689181E+03  0.50000000000E+03  0.18039957800E+03 0. -1.
</event>
<event>
 4   0  0.1092222E-03  0.2236068E+02  0.7957747E-01  0.1516063E+00
      -11   -1    0    0    0    0  0.00000000000E+00  0.00000000000E+00  0.50000000000E+03  0.50000000000E+03  0.00000000000E+00 0.  1.
       11   -1    0    0    0    0 -0.00000000000E+00 -0.00000000000E+00 -0.50000000000E+03  0.50000000000E+03  0.00000000000E+00 0. -1.
  1000024    1    1    2    0    0  0.26978302014E+03  0.34323849303E+03  0.16389158370E+03  0.50000000000E+03  0.18039957800E+03 0. -1.
 -1000024    1    1    2    0    0 -0.26978302014E+03 -0.34323849303E+03 -0.16389158370E+03  0.50000000000E+03  0.18039957800E+03 0.  1.
</event>
<event>
 4   0  0.7366543E-04  0.2236068E+02  0.7957747E-01  0.1516063E+00
      -11   -1    0    0    0    0  0.00000000000E+00  0.00000000000E+00  0.50000000000E+03  0.50000000000E+03  0.00000000000E+00 0.  1.
       11   -1    0    0    0    0 -0.00000000000E+00 -0.00000000000E+00 -0.50000000000E+03  0.50000000000E+03  0.00000000000E+00 0. -1.
  1000024    1    1    2    0    0 -0.65865135664E+02  0.44483006836E+03 -0.12346653979E+03  0.50000000000E+03  0.18039957800E+03 0.  1.
 -1000024    1    1    2    0    0  0.65865135664E+02 -0.44483006836E+03  0.12346653979E+03  0.50000000000E+03  0.18039957800E+03 0. -1.
</event>
<event>
 4   0  0.6712789E-04  0.2236068E+02  0.7957747E-01  0.1516063E+00
      -11   -1    0    0    0    0  0.00000000000E+00  0.00000000000E+00  0.50000000000E+03  0.50000000000E+03  0.00000000000E+00 0.  1.
       11   -1    0    0    0    0 -0.00000000000E+00 -0.00000000000E+00 -0.50000000000E+03  0.50000000000E+03  0.00000000000E+00 0. -1.
  1000024    1    1    2    0    0 -0.27500094347E+03 -0.22461357016E+03  0.30228995592E+03  0.50000000000E+03  0.18039957800E+03 0. -1.
 -1000024    1    1    2    0    0  0.27500094347E+03  0.22461357016E+03 -0.30228995592E+03  0.50000000000E+03  0.18039957800E+03 0.  1.
</event>
<event>
 4   0  0.1092222E-03  0.2236068E+02  0.7957747E-01  0.1516063E+00
      -11   -1    0    0    0    0  0.00000000000E+00  0.00000000000E+00  0.50000000000E+03  0.50000000000E+03  0.00000000000E+00 0.  1.
       11   -1    0    0    0    0 -0.00000000000E+00 -0.00000000000E+00 -0.50000000000E+03  0.50000000000E+03  0.00000000000E+00 0. -1.
  1000024    1    1    2    0    0  0.28206409259E+03 -0.27929551885E+03  0.24472403454E+03  0.50000000000E+03  0.18039957800E+03 0. -1.
 -1000024    1    1    2    0    0 -0.28206409259E+03  0.27929551885E+03 -0.24472403454E+03  0.50000000000E+03  0.18039957800E+03 0.  1.
</event>
<event>
 4   0  0.1092222E-03  0.2236068E+02  0.7957747E-01  0.1516063E+00
      -11   -1    0    0    0    0  0.00000000000E+00  0.00000000000E+00  0.50000000000E+03  0.50000000000E+03  0.00000000000E+00 0.  1.
       11   -1    0    0    0    0 -0.00000000000E+00 -0.00000000000E+00 -0.50000000000E+03  0.50000000000E+03  0.00000000000E+00 0. -1.
  1000024    1    1    2    0    0 -0.46262644346E+03  0.69696850870E+01 -0.58173787581E+02  0.50000000000E+03  0.18039957800E+03 0. -1.
 -1000024    1    1    2    0    0  0.46262644346E+03 -0.69696850870E+01  0.58173787581E+02  0.50000000000E+03  0.18039957800E+03 0.  1.
</event>
<event>
 4   0  0.1092222E-03  0.2236068E+02  0.7957747E-01  0.1516063E+00
      -11   -1    0    0    0    0  0.00000000000E+00  0.00000000000E+00  0.50000000000E+03  0.50000000000E+03  0.00000000000E+00 0.  1.
       11   -1    0    0    0    0 -0.00000000000E+00 -0.00000000000E+00 -0.50000000000E+03  0.50000000000E+03  0.00000000000E+00 0. -1.
  1000024    1    1    2    0    0  0.99318467535E+02 -0.30044697485E+03  0.34252510794E+03  0.50000000000E+03  0.18039957800E+03 0.  1.
 -1000024    1    1    2    0    0 -0.99318467535E+02  0.30044697485E+03 -0.34252510794E+03  0.50000000000E+03  0.18039957800E+03 0. -1.
</event>
<event>
 4   0  0.7366543E-04  0.2236068E+02  0.7957747E-01  0.1516063E+00
      -11   -1    0    0    0    0  0.00000000000E+00  0.00000000000E+00  0.50000000000E+03  0.50000000000E+03  0.00000000000E+00 0.  1.
       11   -1    0    0    0    0 -0.00000000000E+00 -0.00000000000E+00 -0.50000000000E+03  0.50000000000E+03  0.00000000000E+00 0. -1.
  1000024    1    1    2    0    0  0.40216921031E+03 -0.11702595935E+03  0.20498986163E+03  0.50000000000E+03  0.18039957800E+03 0. -1.
 -1000024    1    1    2    0    0 -0.40216921031E+03  0.11702595935E+03 -0.20498986163E+03  0.50000000000E+03  0.18039957800E+03 0.  1.
</event>
<event>
 4   0  0.1092222E-03  0.2236068E+02  0.7957747E-01  0.1516063E+00
      -11   -1    0    0    0    0  0.00000000000E+00  0.00000000000E+00  0.50000000000E+03  0.50000000000E+03  0.00000000000E+00 0.  1.
       11   -1    0    0    0    0 -0.00000000000E+00 -0.00000000000E+00 -0.50000000000E+03  0.50000000000E+03  0.00000000000E+00 0. -1.
  1000024    1    1    2    0    0  0.21320285331E+03  0.39278876156E+03  0.13310719136E+03  0.50000000000E+03  0.18039957800E+03 0. -1.
 -1000024    1    1    2    0    0 -0.21320285331E+03 -0.39278876156E+03 -0.13310719136E+03  0.50000000000E+03  0.18039957800E+03 0.  1.
</event>
<event>
 4   0  0.1092222E-03  0.2236068E+02  0.7957747E-01  0.1516063E+00
      -11   -1    0    0    0    0  0.00000000000E+00  0.00000000000E+00  0.50000000000E+03  0.50000000000E+03  0.00000000000E+00 0.  1.
       11   -1    0    0    0    0 -0.00000000000E+00 -0.00000000000E+00 -0.50000000000E+03  0.50000000000E+03  0.00000000000E+00 0. -1.
  1000024    1    1    2    0    0  0.32918466197E+02  0.35440181561E+03  0.30128345446E+03  0.50000000000E+03  0.18039957800E+03 0.  1.
 -1000024    1    1    2    0    0 -0.32918466197E+02 -0.35440181561E+03 -0.30128345446E+03  0.50000000000E+03  0.18039957800E+03 0. -1.
</event>
<event>
 4   0  0.1092222E-03  0.2236068E+02  0.7957747E-01  0.1516063E+00
      -11   -1    0    0    0    0  0.00000000000E+00  0.00000000000E+00  0.50000000000E+03  0.50000000000E+03  0.00000000000E+00 0.  1.
       11   -1    0    0    0    0 -0.00000000000E+00 -0.00000000000E+00 -0.50000000000E+03  0.50000000000E+03  0.00000000000E+00 0. -1.
  1000024    1    1    2    0    0 -0.21249523470E+03  0.58798649804E+02  0.41090690706E+03  0.50000000000E+03  0.18039957800E+03 0.  1.
 -1000024    1    1    2    0    0  0.21249523470E+03 -0.58798649804E+02 -0.41090690706E+03  0.50000000000E+03  0.18039957800E+03 0. -1.
</event>
<event>
 4   0  0.6712789E-04  0.2236068E+02  0.7957747E-01  0.1516063E+00
      -11   -1    0    0    0    0  0.00000000000E+00  0.00000000000E+00  0.50000000000E+03  0.50000000000E+03  0.00000000000E+00 0.  1.
       11   -1    0    0    0    0 -0.00000000000E+00 -0.00000000000E+00 -0.50000000000E+03  0.50000000000E+03  0.00000000000E+00 0. -1.
  1000024    1    1    2    0    0 -0.16007926201E+03  0.41609204854E+03  0.13674073742E+03  0.50000000000E+03  0.18039957800E+03 0.  1.
 -1000024    1    1    2    0    0  0.16007926201E+03 -0.41609204854E+03 -0.13674073742E+03  0.50000000000E+03  0.18039957800E+03 0. -1.
</event>
<event>
 4   0  0.6712789E-04  0.2236068E+02  0.7957747E-01  0.1516063E+00
      -11   -1    0    0    0    0  0.00000000000E+00  0.00000000000E+00  0.50000000000E+03  0.50000000000E+03  0.00000000000E+00 0.  1.
       11   -1    0    0    0    0 -0.00000000000E+00 -0.00000000000E+00 -0.50000000000E+03  0.50000000000E+03  0.00000000000E+00 0. -1.
  1000024    1    1    2    0    0  0.30127366320E+03  0.20596168783E+02  0.35533923221E+03  0.50000000000E+03  0.18039957800E+03 0.  1.
 -1000024    1    1    2    0    0 -0.30127366320E+03 -0.20596168783E+02 -0.35533923221E+03  0.50000000000E+03  0.18039957800E+03 0. -1.
</event>
<event>
 4   0  0.7366543E-04  0.2236068E+02  0.7957747E-01  0.1516063E+00
      -11   -1    0    0    0    0  0.00000000000E+00  0.00000000000E+00  0.50000000000E+03  0.50000000000E+03  0.00000000000E+00 0.  1.
       11   -1    0    0    0    0 -0.00000000000E+00 -0.00000000000E+00 -0.50000000000E+03  0.50000000000E+03  0.00000000000E+00 0. -1.
  1000024    1    1    2    0    0  0.13773307207E+03 -0.19790655913E+03  0.39914732489E+03  0.50000000000E+03  0.18039957800E+03 0.  1.
 -1000024    1    1    2    0    0 -0.13773307207E+03  0.19790655913E+03 -0.39914732489E+03  0.50000000000E+03  0.18039957800E+03 0. -1.
</event>
<event>
 4   0  0.1092222E-03  0.2236068E+02  0.7957747E-01  0.1516063E+00
      -11   -1    0    0    0    0  0.00000000000E+00  0.00000000000E+00  0.50000000000E+03  0.50000000000E+03  0.00000000000E+00 0.  1.
       11   -1    0    0    0    0 -0.00000000000E+00 -0.00000000000E+00 -0.50000000000E+03  0.50000000000E+03  0.00000000000E+00 0. -1.
  1000024    1    1    2    0    0  0.26286378504E+03 -0.38019292825E+03 -0.61741072876E+02  0.50000000000E+03  0.18039957800E+03 0.  1.
 -1000024    1    1    2    0    0 -0.26286378504E+03  0.38019292825E+03  0.61741072876E+02  0.50000000000E+03  0.18039957800E+03 0. -1.
</event>
<event>
 4   0  0.1092222E-03  0.2236068E+02  0.7957747E-01  0.1516063E+00
      -11   -1    0    0    0    0  0.00000000000E+00  0.00000000000E+00  0.50000000000E+03  0.50000000000E+03  0.00000000000E+00 0.  1.
       11   -1    0    0    0    0 -0.00000000000E+00 -0.00000000000E+00 -0.50000000000E+03  0.50000000000E+03  0.00000000000E+00 0. -1.
  1000024    1    1    2    0    0  0.33490939805E+02  0.43154566487E+03  0.17350126323E+03  0.50000000000E+03  0.18039957800E+03 0.  1.
 -1000024    1    1    2    0    0 -0.33490939805E+02 -0.43154566487E+03 -0.17350126323E+03  0.50000000000E+03  0.18039957800E+03 0. -1.
</event>
<event>
 4   0  0.6712789E-04  0.2236068E+02  0.7957747E-01  0.1516063E+00
      -11   -1    0    0    0    0  0.00000000000E+00  0.00000000000E+00  0.50000000000E+03  0.50000000000E+03  0.00000000000E+00 0.  1.
       11   -1    0    0    0    0 -0.00000000000E+00 -0.00000000000E+00 -0.50000000000E+03  0.50000000000E+03  0.00000000000E+00 0. -1.
  1000024    1    1    2    0    0  0.34633919436E+03 -0.15894211899E+03  0.26877975653E+03  0.50000000000E+03  0.18039957800E+03 0.  1.
 -1000024    1    1    2    0    0 -0.34633919436E+03  0.15894211899E+03 -0.26877975653E+03  0.50000000000E+03  0.18039957800E+03 0.  1.
</event>
<event>
 4   0  0.6712789E-04  0.2236068E+02  0.7957747E-01  0.1516063E+00
      -11   -1    0    0    0    0  0.00000000000E+00  0.00000000000E+00  0.50000000000E+03  0.50000000000E+03  0.00000000000E+00 0.  1.
       11   -1    0    0    0    0 -0.00000000000E+00 -0.00000000000E+00 -0.50000000000E+03  0.50000000000E+03  0.00000000000E+00 0. -1.
  1000024    1    1    2    0    0 -0.43406455256E+02 -0.31423563804E+03  0.34180087139E+03  0.50000000000E+03  0.18039957800E+03 0. -1.
 -1000024    1    1    2    0    0  0.43406455256E+02  0.31423563804E+03 -0.34180087139E+03  0.50000000000E+03  0.18039957800E+03 0. -1.
</event>
<event>
 4   0  0.7366543E-04  0.2236068E+02  0.7957747E-01  0.1516063E+00
      -11   -1    0    0    0    0  0.00000000000E+00  0.00000000000E+00  0.50000000000E+03  0.50000000000E+03  0.00000000000E+00 0.  1.
       11   -1    0    0    0    0 -0.00000000000E+00 -0.00000000000E+00 -0.50000000000E+03  0.50000000000E+03  0.00000000000E+00 0. -1.
  1000024    1    1    2    0    0 -0.39670988386E+03  0.89353386857E+02  0.22823941938E+03  0.50000000000E+03  0.18039957800E+03 0. -1.
 -1000024    1    1    2    0    0  0.39670988386E+03 -0.89353386857E+02 -0.22823941938E+03  0.50000000000E+03  0.18039957800E+03 0.  1.
</event>
<event>
 4   0  0.6712789E-04  0.2236068E+02  0.7957747E-01  0.1516063E+00
      -11   -1    0    0    0    0  0.00000000000E+00  0.00000000000E+00  0.50000000000E+03  0.50000000000E+03  0.00000000000E+00 0.  1.
       11   -1    0    0    0    0 -0.00000000000E+00 -0.00000000000E+00 -0.50000000000E+03  0.50000000000E+03  0.00000000000E+00 0. -1.
  1000024    1    1    2    0    0 -0.36327037742E+03  0.84192544907E+02  0.28000400091E+03  0.50000000000E+03  0.18039957800E+03 0. -1.
 -1000024    1    1    2    0    0  0.36327037742E+03 -0.84192544907E+02 -0.28000400091E+03  0.50000000000E+03  0.18039957800E+03 0.  1.
</event>
<event>
 4   0  0.1092222E-03  0.2236068E+02  0.7957747E-01  0.1516063E+00
      -11   -1    0    0    0    0  0.00000000000E+00  0.00000000000E+00  0.50000000000E+03  0.50000000000E+03  0.00000000000E+00 0.  1.
       11   -1    0    0    0    0 -0.00000000000E+00 -0.00000000000E+00 -0.50000000000E+03  0.50000000000E+03  0.00000000000E+00 0. -1.
  1000024    1    1    2    0    0 -0.17385441962E+03 -0.19336913892E+03  0.38709044053E+03  0.50000000000E+03  0.18039957800E+03 0.  1.
 -1000024    1    1    2    0    0  0.17385441962E+03  0.19336913892E+03 -0.38709044053E+03  0.50000000000E+03  0.18039957800E+03 0. -1.
</event>
<event>
 4   0  0.1092222E-03  0.2236068E+02  0.7957747E-01  0.1516063E+00
      -11   -1    0    0    0    0  0.00000000000E+00  0.00000000000E+00  0.50000000000E+03  0.50000000000E+03  0.00000000000E+00 0.  1.
       11   -1    0    0    0    0 -0.00000000000E+00 -0.00000000000E+00 -0.50000000000E+03  0.50000000000E+03  0.00000000000E+00 0. -1.
  1000024    1    1    2    0    0 -0.32691639938E+03  0.32700262319E+03  0.60423046106E+02  0.50000000000E+03  0.18039957800E+03 0. -1.
 -1000024    1    1    2    0    0  0.32691639938E+03 -0.32700262319E+03 -0.60423046106E+02  0.50000000000E+03  0.18039957800E+03 0.  1.
</event>
<event>
 4   0  0.1092222E-03  0.2236068E+02  0.7957747E-01  0.1516063E+00
      -11   -1    0    0    0    0  0.00000000000E+00  0.00000000000E+00  0.50000000000E+03  0.50000000000E+03  0.00000000000E+00 0.  1.
       11   -1    0    0    0    0 -0.00000000000E+00 -0.00000000000E+00 -0.50000000000E+03  0.50000000000E+03  0.00000000000E+00 0. -1.
  1000024    1    1    2    0    0 -0.32820951458E+03 -0.33106556160E+03 -0.11406170389E+02  0.50000000000E+03  0.18039957800E+03 0. -1.
 -1000024    1    1    2    0    0  0.32820951458E+03  0.33106556160E+03  0.11406170389E+02  0.50000000000E+03  0.18039957800E+03 0.  1.
</event>
<event>
 4   0  0.1092222E-03  0.2236068E+02  0.7957747E-01  0.1516063E+00
      -11   -1    0    0    0    0  0.00000000000E+00  0.00000000000E+00  0.50000000000E+03  0.50000000000E+03  0.00000000000E+00 0.  1.
       11   -1    0    0    0    0 -0.00000000000E+00 -0.00000000000E+00 -0.50000000000E+03  0.50000000000E+03  0.00000000000E+00 0. -1.
  1000024    1    1    2    0    0  0.18186519995E+03  0.41316567243E+03  0.11694087578E+03  0.50000000000E+03  0.18039957800E+03 0.  1.
 -1000024    1    1    2    0    0 -0.18186519995E+03 -0.41316567243E+03 -0.11694087578E+03  0.50000000000E+03  0.18039957800E+03 0. -1.
</event>
<event>
 4   0  0.1092222E-03  0.2236068E+02  0.7957747E-01  0.1516063E+00
      -11   -1    0    0    0    0  0.00000000000E+00  0.00000000000E+00  0.50000000000E+03  0.50000000000E+03  0.00000000000E+00 0.  1.
       11   -1    0    0    0    0 -0.00000000000E+00 -0.00000000000E+00 -0.50000000000E+03  0.50000000000E+03  0.00000000000E+00 0. -1.
  1000024    1    1    2    0    0 -0.19188609563E+03  0.67635055280E+02  0.41959649410E+03  0.50000000000E+03  0.18039957800E+03 0. -1.
 -1000024    1    1    2    0    0  0.19188609563E+03 -0.67635055280E+02 -0.41959649410E+03  0.50000000000E+03  0.18039957800E+03 0.  1.
</event>
<event>
 4   0  0.1092222E-03  0.2236068E+02  0.7957747E-01  0.1516063E+00
      -11   -1    0    0    0    0  0.00000000000E+00  0.00000000000E+00  0.50000000000E+03  0.50000000000E+03  0.00000000000E+00 0.  1.
       11   -1    0    0    0    0 -0.00000000000E+00 -0.00000000000E+00 -0.50000000000E+03  0.50000000000E+03  0.00000000000E+00 0. -1.
  1000024    1    1    2    0    0  0.31091324152E+02  0.25694382336E+03  0.38790358784E+03  0.50000000000E+03  0.18039957800E+03 0.  1.
 -1000024    1    1    2    0    0 -0.31091324152E+02 -0.25694382336E+03 -0.38790358784E+03  0.50000000000E+03  0.18039957800E+03 0. -1.
</event>
<event>
 4   0  0.1092222E-03  0.2236068E+02  0.7957747E-01  0.1516063E+00
      -11   -1    0    0    0    0  0.00000000000E+00  0.00000000000E+00  0.50000000000E+03  0.50000000000E+03  0.00000000000E+00 0.  1.
       11   -1    0    0    0    0 -0.00000000000E+00 -0.00000000000E+00 -0.50000000000E+03  0.50000000000E+03  0.00000000000E+00 0. -1.
  1000024    1    1    2    0    0 -0.28019021465E+01 -0.43058016405E+03  0.17902196494E+03  0.50000000000E+03  0.18039957800E+03 0.  1.
 -1000024    1    1    2    0    0  0.28019021465E+01  0.43058016405E+03 -0.17902196494E+03  0.50000000000E+03  0.18039957800E+03 0. -1.
</event>
<event>
 4   0  0.7366543E-04  0.2236068E+02  0.7957747E-01  0.1516063E+00
      -11   -1    0    0    0    0  0.00000000000E+00  0.00000000000E+00  0.50000000000E+03  0.50000000000E+03  0.00000000000E+00 0.  1.
       11   -1    0    0    0    0 -0.00000000000E+00 -0.00000000000E+00 -0.50000000000E+03  0.50000000000E+03  0.00000000000E+00 0. -1.
  1000024    1    1    2    0    0 -0.16565459513E+03 -0.22432223457E+03  0.37375671559E+03  0.50000000000E+03  0.18039957800E+03 0.  1.
 -1000024    1    1    2    0    0  0.16565459513E+03  0.22432223457E+03 -0.37375671559E+03  0.50000000000E+03  0.18039957800E+03 0.  1.
</event>
<event>
 4   0  0.6712789E-04  0.2236068E+02  0.7957747E-01  0.1516063E+00
      -11   -1    0    0    0    0  0.00000000000E+00  0.00000000000E+00  0.50000000000E+03  0.50000000000E+03  0.00000000000E+00 0.  1.
       11   -1    0    0    0    0 -0.00000000000E+00 -0.00000000000E+00 -0.50000000000E+03  0.50000000000E+03  0.00000000000E+00 0. -1.
  1000024    1    1    2    0    0  0.37602876936E+03  0.13419811670E+03  0.24093406223E+03  0.50000000000E+03  0.18039957800E+03 0.  1.
 -1000024    1    1    2    0    0 -0.37602876936E+03 -0.13419811670E+03 -0.24093406223E+03  0.50000000000E+03  0.18039957800E+03 0. -1.
</event>
<event>
 4   0  0.1092222E-03  0.2236068E+02  0.7957747E-01  0.1516063E+00
      -11   -1    0    0    0    0  0.00000000000E+00  0.00000000000E+00  0.50000000000E+03  0.50000000000E+03  0.00000000000E+00 0.  1.
       11   -1    0    0    0    0 -0.00000000000E+00 -0.00000000000E+00 -0.50000000000E+03  0.50000000000E+03  0.00000000000E+00 0. -1.
  1000024    1    1    2    0    0  0.56273593080E+02  0.25434665552E+03  0.38677778349E+03  0.50000000000E+03  0.18039957800E+03 0.  1.
 -1000024    1    1    2    0    0 -0.56273593080E+02 -0.25434665552E+03 -0.38677778349E+03  0.50000000000E+03  0.18039957800E+03 0. -1.
</event>
<event>
 4   0  0.1092222E-03  0.2236068E+02  0.7957747E-01  0.1516063E+00
      -11   -1    0    0    0    0  0.00000000000E+00  0.00000000000E+00  0.50000000000E+03  0.50000000000E+03  0.00000000000E+00 0.  1.
       11   -1    0    0    0    0 -0.00000000000E+00 -0.00000000000E+00 -0.50000000000E+03  0.50000000000E+03  0.00000000000E+00 0. -1.
  1000024    1    1    2    0    0 -0.33490998977E+03 -0.30101644127E+03  0.12116267202E+03  0.50000000000E+03  0.18039957800E+03 0.  1.
 -1000024    1    1    2    0    0  0.33490998977E+03  0.30101644127E+03 -0.12116267202E+03  0.50000000000E+03  0.18039957800E+03 0. -1.
</event>
<event>
 4   0  0.1092222E-03  0.2236068E+02  0.7957747E-01  0.1516063E+00
      -11   -1    0    0    0    0  0.00000000000E+00  0.00000000000E+00  0.50000000000E+03  0.50000000000E+03  0.00000000000E+00 0.  1.
       11   -1    0    0    0    0 -0.00000000000E+00 -0.00000000000E+00 -0.50000000000E+03  0.50000000000E+03  0.00000000000E+00 0. -1.
  1000024    1    1    2    0    0 -0.11354725837E+03  0.45208561819E+03 -0.13476134589E+02  0.50000000000E+03  0.18039957800E+03 0.  1.
 -1000024    1    1    2    0    0  0.11354725837E+03 -0.45208561819E+03  0.13476134589E+02  0.50000000000E+03  0.18039957800E+03 0. -1.
</event>
<event>
 4   0  0.1092222E-03  0.2236068E+02  0.7957747E-01  0.1516063E+00
      -11   -1    0    0    0    0  0.00000000000E+00  0.00000000000E+00  0.50000000000E+03  0.50000000000E+03  0.00000000000E+00 0.  1.
       11   -1    0    0    0    0 -0.00000000000E+00 -0.00000000000E+00 -0.50000000000E+03  0.50000000000E+03  0.00000000000E+00 0. -1.
  1000024    1    1    2    0    0 -0.36972296323E+03 -0.15238561044E+03  0.23987402621E+03  0.50000000000E+03  0.18039957800E+03 0.  1.
 -1000024    1    1    2    0    0  0.36972296323E+03  0.15238561044E+03 -0.23987402621E+03  0.50000000000E+03  0.18039957800E+03 0. -1.
</event>
<event>
 4   0  0.6712789E-04  0.2236068E+02  0.7957747E-01  0.1516063E+00
      -11   -1    0    0    0    0  0.00000000000E+00  0.00000000000E+00  0.50000000000E+03  0.50000000000E+03  0.00000000000E+00 0.  1.
       11   -1    0    0    0    0 -0.00000000000E+00 -0.00000000000E+00 -0.50000000000E+03  0.50000000000E+03  0.00000000000E+00 0. -1.
  1000024    1    1    2    0    0  0.56658153469E+02 -0.34419642269E+03 -0.30947482695E+03  0.50000000000E+03  0.18039957800E+03 0.  1.
 -1000024    1    1    2    0    0 -0.56658153469E+02  0.34419642269E+03  0.30947482695E+03  0.50000000000E+03  0.18039957800E+03 0. -1.
</event>
<event>
 4   0  0.1092222E-03  0.2236068E+02  0.7957747E-01  0.1516063E+00
      -11   -1    0    0    0    0  0.00000000000E+00  0.00000000000E+00  0.50000000000E+03  0.50000000000E+03  0.00000000000E+00 0.  1.
       11   -1    0    0    0    0 -0.00000000000E+00 -0.00000000000E+00 -0.50000000000E+03  0.50000000000E+03  0.00000000000E+00 0. -1.
  1000024    1    1    2    0    0  0.21443700631E+03  0.28004607306E+01  0.41408322835E+03  0.50000000000E+03  0.18039957800E+03 0.  1.
 -1000024    1    1    2    0    0 -0.21443700631E+03 -0.28004607306E+01 -0.41408322835E+03  0.50000000000E+03  0.18039957800E+03 0. -1.
</event>
<event>
 4   0  0.1092222E-03  0.2236068E+02  0.7957747E-01  0.1516063E+00
      -11   -1    0    0    0    0  0.00000000000E+00  0.00000000000E+00  0.50000000000E+03  0.50000000000E+03  0.00000000000E+00 0.  1.
       11   -1    0    0    0    0 -0.00000000000E+00 -0.00000000000E+00 -0.50000000000E+03  0.50000000000E+03  0.00000000000E+00 0. -1.
  1000024    1    1    2    0    0 -0.84891300497E+02 -0.44659215409E+03  0.10394665583E+03  0.50000000000E+03  0.18039957800E+03 0. -1.
 -1000024    1    1    2    0    0  0.84891300497E+02  0.44659215409E+03 -0.10394665583E+03  0.50000000000E+03  0.18039957800E+03 0.  1.
</event>
<event>
 4   0  0.7366543E-04  0.2236068E+02  0.7957747E-01  0.1516063E+00
      -11   -1    0    0    0    0  0.00000000000E+00  0.00000000000E+00  0.50000000000E+03  0.50000000000E+03  0.00000000000E+00 0.  1.
       11   -1    0    0    0    0 -0.00000000000E+00 -0.00000000000E+00 -0.50000000000E+03  0.50000000000E+03  0.00000000000E+00 0. -1.
  1000024    1    1    2    0    0 -0.17908901939E+03  0.36899109439E+03  0.22187538767E+03  0.50000000000E+03  0.18039957800E+03 0. -1.
 -1000024    1    1    2    0    0  0.17908901939E+03 -0.36899109439E+03 -0.22187538767E+03  0.50000000000E+03  0.18039957800E+03 0.  1.
</event>
<event>
 4   0  0.1092222E-03  0.2236068E+02  0.7957747E-01  0.1516063E+00
      -11   -1    0    0    0    0  0.00000000000E+00  0.00000000000E+00  0.50000000000E+03  0.50000000000E+03  0.00000000000E+00 0.  1.
       11   -1    0    0    0    0 -0.00000000000E+00 -0.00000000000E+00 -0.50000000000E+03  0.50000000000E+03  0.00000000000E+00 0. -1.
  1000024    1    1    2    0    0  0.15900208298E+03 -0.39255049135E+03  0.19513698164E+03  0.50000000000E+03  0.18039957800E+03 0.  1.
 -1000024    1    1    2    0    0 -0.15900208298E+03  0.39255049135E+03 -0.19513698164E+03  0.50000000000E+03  0.18039957800E+03 0. -1.
</event>
<event>
 4   0  0.6712789E-04  0.2236068E+02  0.7957747E-01  0.1516063E+00
      -11   -1    0    0    0    0  0.00000000000E+00  0.00000000000E+00  0.50000000000E+03  0.50000000000E+03  0.00000000000E+00 0.  1.
       11   -1    0    0    0    0 -0.00000000000E+00 -0.00000000000E+00 -0.50000000000E+03  0.50000000000E+03  0.00000000000E+00 0. -1.
  1000024    1    1    2    0    0  0.29357459381E+03  0.20126280959E+03  0.30126936718E+03  0.50000000000E+03  0.18039957800E+03 0.  1.
 -1000024    1    1    2    0    0 -0.29357459381E+03 -0.20126280959E+03 -0.30126936718E+03  0.50000000000E+03  0.18039957800E+03 0. -1.
</event>
<event>
 4   0  0.6712789E-04  0.2236068E+02  0.7957747E-01  0.1516063E+00
      -11   -1    0    0    0    0  0.00000000000E+00  0.00000000000E+00  0.50000000000E+03  0.50000000000E+03  0.00000000000E+00 0.  1.
       11   -1    0    0    0    0 -0.00000000000E+00 -0.00000000000E+00 -0.50000000000E+03  0.50000000000E+03  0.00000000000E+00 0. -1.
  1000024    1    1    2    0    0  0.22523598266E+03 -0.35037212469E+03  0.20967622328E+03  0.50000000000E+03  0.18039957800E+03 0. -1.
 -1000024    1    1    2    0    0 -0.22523598266E+03  0.35037212469E+03 -0.20967622328E+03  0.50000000000E+03  0.18039957800E+03 0.  1.
</event>
<event>
 4   0  0.7366543E-04  0.2236068E+02  0.7957747E-01  0.1516063E+00
      -11   -1    0    0    0    0  0.00000000000E+00  0.00000000000E+00  0.50000000000E+03  0.50000000000E+03  0.00000000000E+00 0.  1.
       11   -1    0    0    0    0 -0.00000000000E+00 -0.00000000000E+00 -0.50000000000E+03  0.50000000000E+03  0.00000000000E+00 0. -1.
  1000024    1    1    2    0    0 -0.20703779293E+03 -0.27184147464E+03 -0.31732248143E+03  0.50000000000E+03  0.18039957800E+03 0.  1.
 -1000024    1    1    2    0    0  0.20703779293E+03  0.27184147464E+03  0.31732248143E+03  0.50000000000E+03  0.18039957800E+03 0. -1.
</event>
<event>
 4   0  0.6712789E-04  0.2236068E+02  0.7957747E-01  0.1516063E+00
      -11   -1    0    0    0    0  0.00000000000E+00  0.00000000000E+00  0.50000000000E+03  0.50000000000E+03  0.00000000000E+00 0.  1.
       11   -1    0    0    0    0 -0.00000000000E+00 -0.00000000000E+00 -0.50000000000E+03  0.50000000000E+03  0.00000000000E+00 0. -1.
  1000024    1    1    2    0    0  0.18601125962E+02  0.29875544227E+03  0.35756842154E+03  0.50000000000E+03  0.18039957800E+03 0. -1.
 -1000024    1    1    2    0    0 -0.18601125962E+02 -0.29875544227E+03 -0.35756842154E+03  0.50000000000E+03  0.18039957800E+03 0.  1.
</event>
<event>
 4   0  0.6712789E-04  0.2236068E+02  0.7957747E-01  0.1516063E+00
      -11   -1    0    0    0    0  0.00000000000E+00  0.00000000000E+00  0.50000000000E+03  0.50000000000E+03  0.00000000000E+00 0.  1.
       11   -1    0    0    0    0 -0.00000000000E+00 -0.00000000000E+00 -0.50000000000E+03  0.50000000000E+03  0.00000000000E+00 0. -1.
  1000024    1    1    2    0    0 -0.95731529600E+02  0.36327512028E+03  0.27626554885E+03  0.50000000000E+03  0.18039957800E+03 0. -1.
 -1000024    1    1    2    0    0  0.95731529600E+02 -0.36327512028E+03 -0.27626554885E+03  0.50000000000E+03  0.18039957800E+03 0. -1.
</event>
<event>
 4   0  0.1092222E-03  0.2236068E+02  0.7957747E-01  0.1516063E+00
      -11   -1    0    0    0    0  0.00000000000E+00  0.00000000000E+00  0.50000000000E+03  0.50000000000E+03  0.00000000000E+00 0.  1.
       11   -1    0    0    0    0 -0.00000000000E+00 -0.00000000000E+00 -0.50000000000E+03  0.50000000000E+03  0.00000000000E+00 0. -1.
  1000024    1    1    2    0    0 -0.27786782218E+03  0.27912435470E+03  0.24966990261E+03  0.50000000000E+03  0.18039957800E+03 0.  1.
 -1000024    1    1    2    0    0  0.27786782218E+03 -0.27912435470E+03 -0.24966990261E+03  0.50000000000E+03  0.18039957800E+03 0. -1.
</event>
<event>
 4   0  0.7366543E-04  0.2236068E+02  0.7957747E-01  0.1516063E+00
      -11   -1    0    0    0    0  0.00000000000E+00  0.00000000000E+00  0.50000000000E+03  0.50000000000E+03  0.00000000000E+00 0.  1.
       11   -1    0    0    0    0 -0.00000000000E+00 -0.00000000000E+00 -0.50000000000E+03  0.50000000000E+03  0.00000000000E+00 0. -1.
  1000024    1    1    2    0    0 -0.14722429434E+03 -0.41521514528E+03  0.15289664006E+03  0.50000000000E+03  0.18039957800E+03 0.  1.
 -1000024    1    1    2    0    0  0.14722429434E+03  0.41521514528E+03 -0.15289664006E+03  0.50000000000E+03  0.18039957800E+03 0. -1.
</event>
<event>
 4   0  0.7366543E-04  0.2236068E+02  0.7957747E-01  0.1516063E+00
      -11   -1    0    0    0    0  0.00000000000E+00  0.00000000000E+00  0.50000000000E+03  0.50000000000E+03  0.00000000000E+00 0.  1.
       11   -1    0    0    0    0 -0.00000000000E+00 -0.00000000000E+00 -0.50000000000E+03  0.50000000000E+03  0.00000000000E+00 0. -1.
  1000024    1    1    2    0    0  0.26580195159E+02 -0.46374202738E+03 -0.41143863783E+02  0.50000000000E+03  0.18039957800E+03 0. -1.
 -1000024    1    1    2    0    0 -0.26580195159E+02  0.46374202738E+03  0.41143863783E+02  0.50000000000E+03  0.18039957800E+03 0.  1.
</event>
<event>
 4   0  0.6712789E-04  0.2236068E+02  0.7957747E-01  0.1516063E+00
      -11   -1    0    0    0    0  0.00000000000E+00  0.00000000000E+00  0.50000000000E+03  0.50000000000E+03  0.00000000000E+00 0.  1.
       11   -1    0    0    0    0 -0.00000000000E+00 -0.00000000000E+00 -0.50000000000E+03  0.50000000000E+03  0.00000000000E+00 0. -1.
  1000024    1    1    2    0    0 -0.64190299219E+02  0.45566059540E+03  0.75558054101E+02  0.50000000000E+03  0.18039957800E+03 0. -1.
 -1000024    1    1    2    0    0  0.64190299219E+02 -0.45566059540E+03 -0.75558054101E+02  0.50000000000E+03  0.18039957800E+03 0.  1.
</event>
<event>
 4   0  0.1092222E-03  0.2236068E+02  0.7957747E-01  0.1516063E+00
      -11   -1    0    0    0    0  0.00000000000E+00  0.00000000000E+00  0.50000000000E+03  0.50000000000E+03  0.00000000000E+00 0.  1.
       11   -1    0    0    0    0 -0.00000000000E+00 -0.00000000000E+00 -0.50000000000E+03  0.50000000000E+03  0.00000000000E+00 0. -1.
  1000024    1    1    2    0    0  0.11328820745E+03  0.26433042408E+03  0.36708473302E+03  0.50000000000E+03  0.18039957800E+03 0. -1.
 -1000024    1    1    2    0    0 -0.11328820745E+03 -0.26433042408E+03 -0.36708473302E+03  0.50000000000E+03  0.18039957800E+03 0. -1.
</event>
<event>
 4   0  0.6712789E-04  0.2236068E+02  0.7957747E-01  0.1516063E+00
      -11   -1    0    0    0    0  0.00000000000E+00  0.00000000000E+00  0.50000000000E+03  0.50000000000E+03  0.00000000000E+00 0.  1.
       11   -1    0    0    0    0 -0.00000000000E+00 -0.00000000000E+00 -0.50000000000E+03  0.50000000000E+03  0.00000000000E+00 0. -1.
  1000024    1    1    2    0    0  0.82180976763E+02  0.44715404731E+03  0.10370890649E+03  0.50000000000E+03  0.18039957800E+03 0.  1.
 -1000024    1    1    2    0    0 -0.82180976763E+02 -0.44715404731E+03 -0.10370890649E+03  0.50000000000E+03  0.18039957800E+03 0. -1.
</event>
<event>
 4   0  0.1092222E-03  0.2236068E+02  0.7957747E-01  0.1516063E+00
      -11   -1    0    0    0    0  0.00000000000E+00  0.00000000000E+00  0.50000000000E+03  0.50000000000E+03  0.00000000000E+00 0.  1.
       11   -1    0    0    0    0 -0.00000000000E+00 -0.00000000000E+00 -0.50000000000E+03  0.50000000000E+03  0.00000000000E+00 0. -1.
  1000024    1    1    2    0    0  0.40163975028E+02  0.39873726271E+03  0.23843540570E+03  0.50000000000E+03  0.18039957800E+03 0. -1.
 -1000024    1    1    2    0    0 -0.40163975028E+02 -0.39873726271E+03 -0.23843540570E+03  0.50000000000E+03  0.18039957800E+03 0.  1.
</event>
<event>
 4   0  0.6712789E-04  0.2236068E+02  0.7957747E-01  0.1516063E+00
      -11   -1    0    0    0    0  0.00000000000E+00  0.00000000000E+00  0.50000000000E+03  0.50000000000E+03  0.00000000000E+00 0.  1.
       11   -1    0    0    0    0 -0.00000000000E+00 -0.00000000000E+00 -0.50000000000E+03  0.50000000000E+03  0.00000000000E+00 0. -1.
  1000024    1    1    2    0    0  0.14341318823E+02  0.35669961257E+03  0.30002617424E+03  0.50000000000E+03  0.18039957800E+03 0. -1.
 -1000024    1    1    2    0    0 -0.14341318823E+02 -0.35669961257E+03 -0.30002617424E+03  0.50000000000E+03  0.18039957800E+03 0.  1.
</event>
<event>
 4   0  0.1092222E-03  0.2236068E+02  0.7957747E-01  0.1516063E+00
      -11   -1    0    0    0    0  0.00000000000E+00  0.00000000000E+00  0.50000000000E+03  0.50000000000E+03  0.00000000000E+00 0.  1.
       11   -1    0    0    0    0 -0.00000000000E+00 -0.00000000000E+00 -0.50000000000E+03  0.50000000000E+03  0.00000000000E+00 0. -1.
  1000024    1    1    2    0    0  0.41155471853E+03 -0.21483951270E+03  0.43848485714E+02  0.50000000000E+03  0.18039957800E+03 0. -1.
 -1000024    1    1    2    0    0 -0.41155471853E+03  0.21483951270E+03 -0.43848485714E+02  0.50000000000E+03  0.18039957800E+03 0.  1.
</event>
<event>
 4   0  0.1092222E-03  0.2236068E+02  0.7957747E-01  0.1516063E+00
      -11   -1    0    0    0    0  0.00000000000E+00  0.00000000000E+00  0.50000000000E+03  0.50000000000E+03  0.00000000000E+00 0.  1.
       11   -1    0    0    0    0 -0.00000000000E+00 -0.00000000000E+00 -0.50000000000E+03  0.50000000000E+03  0.00000000000E+00 0. -1.
  1000024    1    1    2    0    0  0.68017560081E+02  0.32606867213E+02  0.46018082966E+03  0.50000000000E+03  0.18039957800E+03 0.  1.
 -1000024    1    1    2    0    0 -0.68017560081E+02 -0.32606867213E+02 -0.46018082966E+03  0.50000000000E+03  0.18039957800E+03 0. -1.
</event>
<event>
 4   0  0.1092222E-03  0.2236068E+02  0.7957747E-01  0.1516063E+00
      -11   -1    0    0    0    0  0.00000000000E+00  0.00000000000E+00  0.50000000000E+03  0.50000000000E+03  0.00000000000E+00 0.  1.
       11   -1    0    0    0    0 -0.00000000000E+00 -0.00000000000E+00 -0.50000000000E+03  0.50000000000E+03  0.00000000000E+00 0. -1.
  1000024    1    1    2    0    0  0.12417448320E+03 -0.41604979490E+03 -0.17011542594E+03  0.50000000000E+03  0.18039957800E+03 0.  1.
 -1000024    1    1    2    0    0 -0.12417448320E+03  0.41604979490E+03  0.17011542594E+03  0.50000000000E+03  0.18039957800E+03 0. -1.
</event>
<event>
 4   0  0.1092222E-03  0.2236068E+02  0.7957747E-01  0.1516063E+00
      -11   -1    0    0    0    0  0.00000000000E+00  0.00000000000E+00  0.50000000000E+03  0.50000000000E+03  0.00000000000E+00 0.  1.
       11   -1    0    0    0    0 -0.00000000000E+00 -0.00000000000E+00 -0.50000000000E+03  0.50000000000E+03  0.00000000000E+00 0. -1.
  1000024    1    1    2    0    0  0.22134630164E+02  0.46489234823E+03  0.29002671614E+02  0.50000000000E+03  0.18039957800E+03 0. -1.
 -1000024    1    1    2    0    0 -0.22134630164E+02 -0.46489234823E+03 -0.29002671614E+02  0.50000000000E+03  0.18039957800E+03 0.  1.
</event>
<event>
 4   0  0.1092222E-03  0.2236068E+02  0.7957747E-01  0.1516063E+00
      -11   -1    0    0    0    0  0.00000000000E+00  0.00000000000E+00  0.50000000000E+03  0.50000000000E+03  0.00000000000E+00 0.  1.
       11   -1    0    0    0    0 -0.00000000000E+00 -0.00000000000E+00 -0.50000000000E+03  0.50000000000E+03  0.00000000000E+00 0. -1.
  1000024    1    1    2    0    0 -0.29100297930E+03  0.35641024689E+03  0.75795740026E+02  0.50000000000E+03  0.18039957800E+03 0. -1.
 -1000024    1    1    2    0    0  0.29100297930E+03 -0.35641024689E+03 -0.75795740026E+02  0.50000000000E+03  0.18039957800E+03 0.  1.
</event>
<event>
 4   0  0.6712789E-04  0.2236068E+02  0.7957747E-01  0.1516063E+00
      -11   -1    0    0    0    0  0.00000000000E+00  0.00000000000E+00  0.50000000000E+03  0.50000000000E+03  0.00000000000E+00 0.  1.
       11   -1    0    0    0    0 -0.00000000000E+00 -0.00000000000E+00 -0.50000000000E+03  0.50000000000E+03  0.00000000000E+00 0. -1.
  1000024    1    1    2    0    0 -0.13222804608E+03  0.33363810914E+02  0.44593563685E+03  0.50000000000E+03  0.18039957800E+03 0.  1.
 -1000024    1    1    2    0    0  0.13222804608E+03 -0.33363810914E+02 -0.44593563685E+03  0.50000000000E+03  0.18039957800E+03 0.  1.
</event>
<event>
 4   0  0.6712789E-04  0.2236068E+02  0.7957747E-01  0.1516063E+00
      -11   -1    0    0    0    0  0.00000000000E+00  0.00000000000E+00  0.50000000000E+03  0.50000000000E+03  0.00000000000E+00 0.  1.
       11   -1    0    0    0    0 -0.00000000000E+00 -0.00000000000E+00 -0.50000000000E+03  0.50000000000E+03  0.00000000000E+00 0. -1.
  1000024    1    1    2    0    0  0.33590173335E+03  0.16406301159E+03  0.27876396112E+03  0.50000000000E+03  0.18039957800E+03 0.  1.
 -1000024    1    1    2    0    0 -0.33590173335E+03 -0.16406301159E+03 -0.27876396112E+03  0.50000000000E+03  0.18039957800E+03 0. -1.
</event>
<event>
 4   0  0.7366543E-04  0.2236068E+02  0.7957747E-01  0.1516063E+00
      -11   -1    0    0    0    0  0.00000000000E+00  0.00000000000E+00  0.50000000000E+03  0.50000000000E+03  0.00000000000E+00 0.  1.
       11   -1    0    0    0    0 -0.00000000000E+00 -0.00000000000E+00 -0.50000000000E+03  0.50000000000E+03  0.00000000000E+00 0. -1.
  1000024    1    1    2    0    0 -0.24108449156E+03  0.67333636880E+02  0.39344687257E+03  0.50000000000E+03  0.18039957800E+03 0. -1.
 -1000024    1    1    2    0    0  0.24108449156E+03 -0.67333636880E+02 -0.39344687257E+03  0.50000000000E+03  0.18039957800E+03 0.  1.
</event>
<event>
 4   0  0.6712789E-04  0.2236068E+02  0.7957747E-01  0.1516063E+00
      -11   -1    0    0    0    0  0.00000000000E+00  0.00000000000E+00  0.50000000000E+03  0.50000000000E+03  0.00000000000E+00 0.  1.
       11   -1    0    0    0    0 -0.00000000000E+00 -0.00000000000E+00 -0.50000000000E+03  0.50000000000E+03  0.00000000000E+00 0. -1.
  1000024    1    1    2    0    0 -0.13606970016E+03 -0.28894175395E+03  0.33978477273E+03  0.50000000000E+03  0.18039957800E+03 0. -1.
 -1000024    1    1    2    0    0  0.13606970016E+03  0.28894175395E+03 -0.33978477273E+03  0.50000000000E+03  0.18039957800E+03 0.  1.
</event>
<event>
 4   0  0.1092222E-03  0.2236068E+02  0.7957747E-01  0.1516063E+00
      -11   -1    0    0    0    0  0.00000000000E+00  0.00000000000E+00  0.50000000000E+03  0.50000000000E+03  0.00000000000E+00 0.  1.
       11   -1    0    0    0    0 -0.00000000000E+00 -0.00000000000E+00 -0.50000000000E+03  0.50000000000E+03  0.00000000000E+00 0. -1.
  1000024    1    1    2    0    0  0.88811517485E+02  0.43370170928E+03  0.14653100009E+03  0.50000000000E+03  0.18039957800E+03 0. -1.
 -1000024    1    1    2    0    0 -0.88811517485E+02 -0.43370170928E+03 -0.14653100009E+03  0.50000000000E+03  0.18039957800E+03 0.  1.
</event>
<event>
 4   0  0.6712789E-04  0.2236068E+02  0.7957747E-01  0.1516063E+00
      -11   -1    0    0    0    0  0.00000000000E+00  0.00000000000E+00  0.50000000000E+03  0.50000000000E+03  0.00000000000E+00 0.  1.
       11   -1    0    0    0    0 -0.00000000000E+00 -0.00000000000E+00 -0.50000000000E+03  0.50000000000E+03  0.00000000000E+00 0. -1.
  1000024    1    1    2    0    0 -0.36759044793E+03 -0.14653120775E+03  0.24670196595E+03  0.50000000000E+03  0.18039957800E+03 0.  1.
 -1000024    1    1    2    0    0  0.36759044793E+03  0.14653120775E+03 -0.24670196595E+03  0.50000000000E+03  0.18039957800E+03 0. -1.
</event>
<event>
 4   0  0.6712789E-04  0.2236068E+02  0.7957747E-01  0.1516063E+00
      -11   -1    0    0    0    0  0.00000000000E+00  0.00000000000E+00  0.50000000000E+03  0.50000000000E+03  0.00000000000E+00 0.  1.
       11   -1    0    0    0    0 -0.00000000000E+00 -0.00000000000E+00 -0.50000000000E+03  0.50000000000E+03  0.00000000000E+00 0. -1.
  1000024    1    1    2    0    0 -0.27968693478E+03 -0.10460291329E+03  0.35817515450E+03  0.50000000000E+03  0.18039957800E+03 0.  1.
 -1000024    1    1    2    0    0  0.27968693478E+03  0.10460291329E+03 -0.35817515450E+03  0.50000000000E+03  0.18039957800E+03 0. -1.
</event>
<event>
 4   0  0.7366543E-04  0.2236068E+02  0.7957747E-01  0.1516063E+00
      -11   -1    0    0    0    0  0.00000000000E+00  0.00000000000E+00  0.50000000000E+03  0.50000000000E+03  0.00000000000E+00 0.  1.
       11   -1    0    0    0    0 -0.00000000000E+00 -0.00000000000E+00 -0.50000000000E+03  0.50000000000E+03  0.00000000000E+00 0. -1.
  1000024    1    1    2    0    0  0.44070625024E+03 -0.51434237598E+02  0.14348697663E+03  0.50000000000E+03  0.18039957800E+03 0.  1.
 -1000024    1    1    2    0    0 -0.44070625024E+03  0.51434237598E+02 -0.14348697663E+03  0.50000000000E+03  0.18039957800E+03 0. -1.
</event>
<event>
 4   0  0.1092222E-03  0.2236068E+02  0.7957747E-01  0.1516063E+00
      -11   -1    0    0    0    0  0.00000000000E+00  0.00000000000E+00  0.50000000000E+03  0.50000000000E+03  0.00000000000E+00 0.  1.
       11   -1    0    0    0    0 -0.00000000000E+00 -0.00000000000E+00 -0.50000000000E+03  0.50000000000E+03  0.00000000000E+00 0. -1.
  1000024    1    1    2    0    0 -0.27842324187E+03 -0.37114064663E+03  0.46809305284E+02  0.50000000000E+03  0.18039957800E+03 0. -1.
 -1000024    1    1    2    0    0  0.27842324187E+03  0.37114064663E+03 -0.46809305284E+02  0.50000000000E+03  0.18039957800E+03 0.  1.
</event>
<event>
 4   0  0.6712789E-04  0.2236068E+02  0.7957747E-01  0.1516063E+00
      -11   -1    0    0    0    0  0.00000000000E+00  0.00000000000E+00  0.50000000000E+03  0.50000000000E+03  0.00000000000E+00 0.  1.
       11   -1    0    0    0    0 -0.00000000000E+00 -0.00000000000E+00 -0.50000000000E+03  0.50000000000E+03  0.00000000000E+00 0. -1.
  1000024    1    1    2    0    0 -0.43760759491E+03  0.11049252431E+03  0.11724754671E+03  0.50000000000E+03  0.18039957800E+03 0. -1.
 -1000024    1    1    2    0    0  0.43760759491E+03 -0.11049252431E+03 -0.11724754671E+03  0.50000000000E+03  0.18039957800E+03 0.  1.
</event>
<event>
 4   0  0.7366543E-04  0.2236068E+02  0.7957747E-01  0.1516063E+00
      -11   -1    0    0    0    0  0.00000000000E+00  0.00000000000E+00  0.50000000000E+03  0.50000000000E+03  0.00000000000E+00 0.  1.
       11   -1    0    0    0    0 -0.00000000000E+00 -0.00000000000E+00 -0.50000000000E+03  0.50000000000E+03  0.00000000000E+00 0. -1.
  1000024    1    1    2    0    0 -0.15521490699E+03  0.63510280118E+02  0.43512155684E+03  0.50000000000E+03  0.18039957800E+03 0.  1.
 -1000024    1    1    2    0    0  0.15521490699E+03 -0.63510280118E+02 -0.43512155684E+03  0.50000000000E+03  0.18039957800E+03 0. -1.
</event>
<event>
 4   0  0.7366543E-04  0.2236068E+02  0.7957747E-01  0.1516063E+00
      -11   -1    0    0    0    0  0.00000000000E+00  0.00000000000E+00  0.50000000000E+03  0.50000000000E+03  0.00000000000E+00 0.  1.
       11   -1    0    0    0    0 -0.00000000000E+00 -0.00000000000E+00 -0.50000000000E+03  0.50000000000E+03  0.00000000000E+00 0. -1.
  1000024    1    1    2    0    0 -0.17778872234E+03  0.34062024842E+03  0.26424422195E+03  0.50000000000E+03  0.18039957800E+03 0.  1.
 -1000024    1    1    2    0    0  0.17778872234E+03 -0.34062024842E+03 -0.26424422195E+03  0.50000000000E+03  0.18039957800E+03 0. -1.
</event>
<event>
 4   0  0.7366543E-04  0.2236068E+02  0.7957747E-01  0.1516063E+00
      -11   -1    0    0    0    0  0.00000000000E+00  0.00000000000E+00  0.50000000000E+03  0.50000000000E+03  0.00000000000E+00 0.  1.
       11   -1    0    0    0    0 -0.00000000000E+00 -0.00000000000E+00 -0.50000000000E+03  0.50000000000E+03  0.00000000000E+00 0. -1.
  1000024    1    1    2    0    0 -0.12877071739E+03  0.28824245981E+03  0.34320602990E+03  0.50000000000E+03  0.18039957800E+03 0.  1.
 -1000024    1    1    2    0    0  0.12877071739E+03 -0.28824245981E+03 -0.34320602990E+03  0.50000000000E+03  0.18039957800E+03 0. -1.
</event>
<event>
 4   0  0.1092222E-03  0.2236068E+02  0.7957747E-01  0.1516063E+00
      -11   -1    0    0    0    0  0.00000000000E+00  0.00000000000E+00  0.50000000000E+03  0.50000000000E+03  0.00000000000E+00 0.  1.
       11   -1    0    0    0    0 -0.00000000000E+00 -0.00000000000E+00 -0.50000000000E+03  0.50000000000E+03  0.00000000000E+00 0. -1.
  1000024    1    1    2    0    0 -0.11267075202E+03  0.41414266120E+03  0.18233801049E+03  0.50000000000E+03  0.18039957800E+03 0.  1.
 -1000024    1    1    2    0    0  0.11267075202E+03 -0.41414266120E+03 -0.18233801049E+03  0.50000000000E+03  0.18039957800E+03 0. -1.
</event>
<event>
 4   0  0.1092222E-03  0.2236068E+02  0.7957747E-01  0.1516063E+00
      -11   -1    0    0    0    0  0.00000000000E+00  0.00000000000E+00  0.50000000000E+03  0.50000000000E+03  0.00000000000E+00 0.  1.
       11   -1    0    0    0    0 -0.00000000000E+00 -0.00000000000E+00 -0.50000000000E+03  0.50000000000E+03  0.00000000000E+00 0. -1.
  1000024    1    1    2    0    0 -0.33557988434E+03 -0.12627918048E+03  0.29815382282E+03  0.50000000000E+03  0.18039957800E+03 0.  1.
 -1000024    1    1    2    0    0  0.33557988434E+03  0.12627918048E+03 -0.29815382282E+03  0.50000000000E+03  0.18039957800E+03 0. -1.
</event>
<event>
 4   0  0.1092222E-03  0.2236068E+02  0.7957747E-01  0.1516063E+00
      -11   -1    0    0    0    0  0.00000000000E+00  0.00000000000E+00  0.50000000000E+03  0.50000000000E+03  0.00000000000E+00 0.  1.
       11   -1    0    0    0    0 -0.00000000000E+00 -0.00000000000E+00 -0.50000000000E+03  0.50000000000E+03  0.00000000000E+00 0. -1.
  1000024    1    1    2    0    0  0.34950614525E+03  0.29126331493E+03  0.10230898332E+03  0.50000000000E+03  0.18039957800E+03 0.  1.
 -1000024    1    1    2    0    0 -0.34950614525E+03 -0.29126331493E+03 -0.10230898332E+03  0.50000000000E+03  0.18039957800E+03 0. -1.
</event>
<event>
 4   0  0.6712789E-04  0.2236068E+02  0.7957747E-01  0.1516063E+00
      -11   -1    0    0    0    0  0.00000000000E+00  0.00000000000E+00  0.50000000000E+03  0.50000000000E+03  0.00000000000E+00 0.  1.
       11   -1    0    0    0    0 -0.00000000000E+00 -0.00000000000E+00 -0.50000000000E+03  0.50000000000E+03  0.00000000000E+00 0. -1.
  1000024    1    1    2    0    0  0.25758849158E+03 -0.35352662571E+03  0.16162637834E+03  0.50000000000E+03  0.18039957800E+03 0.  1.
 -1000024    1    1    2    0    0 -0.25758849158E+03  0.35352662571E+03 -0.16162637834E+03  0.50000000000E+03  0.18039957800E+03 0. -1.
</event>
<event>
 4   0  0.1092222E-03  0.2236068E+02  0.7957747E-01  0.1516063E+00
      -11   -1    0    0    0    0  0.00000000000E+00  0.00000000000E+00  0.50000000000E+03  0.50000000000E+03  0.00000000000E+00 0.  1.
       11   -1    0    0    0    0 -0.00000000000E+00 -0.00000000000E+00 -0.50000000000E+03  0.50000000000E+03  0.00000000000E+00 0. -1.
  1000024    1    1    2    0    0  0.33244208826E+03 -0.80429003512E+02  0.31696912405E+03  0.50000000000E+03  0.18039957800E+03 0. -1.
 -1000024    1    1    2    0    0 -0.33244208826E+03  0.80429003512E+02 -0.31696912405E+03  0.50000000000E+03  0.18039957800E+03 0.  1.
</event>
<event>
 4   0  0.7366543E-04  0.2236068E+02  0.7957747E-01  0.1516063E+00
      -11   -1    0    0    0    0  0.00000000000E+00  0.00000000000E+00  0.50000000000E+03  0.50000000000E+03  0.00000000000E+00 0.  1.
       11   -1    0    0    0    0 -0.00000000000E+00 -0.00000000000E+00 -0.50000000000E+03  0.50000000000E+03  0.00000000000E+00 0. -1.
  1000024    1    1    2    0    0 -0.23766430105E+03 -0.27658488951E+03  0.29064148217E+03  0.50000000000E+03  0.18039957800E+03 0.  1.
 -1000024    1    1    2    0    0  0.23766430105E+03  0.27658488951E+03 -0.29064148217E+03  0.50000000000E+03  0.18039957800E+03 0. -1.
</event>
<event>
 4   0  0.1092222E-03  0.2236068E+02  0.7957747E-01  0.1516063E+00
      -11   -1    0    0    0    0  0.00000000000E+00  0.00000000000E+00  0.50000000000E+03  0.50000000000E+03  0.00000000000E+00 0.  1.
       11   -1    0    0    0    0 -0.00000000000E+00 -0.00000000000E+00 -0.50000000000E+03  0.50000000000E+03  0.00000000000E+00 0. -1.
  1000024    1    1    2    0    0 -0.36309059924E+03 -0.15080661034E+02  0.29222214609E+03  0.50000000000E+03  0.18039957800E+03 0. -1.
 -1000024    1    1    2    0    0  0.36309059924E+03  0.15080661034E+02 -0.29222214609E+03  0.50000000000E+03  0.18039957800E+03 0.  1.
</event>
<event>
 4   0  0.7366543E-04  0.2236068E+02  0.7957747E-01  0.1516063E+00
      -11   -1    0    0    0    0  0.00000000000E+00  0.00000000000E+00  0.50000000000E+03  0.50000000000E+03  0.00000000000E+00 0.  1.
       11   -1    0    0    0    0 -0.00000000000E+00 -0.00000000000E+00 -0.50000000000E+03  0.50000000000E+03  0.00000000000E+00 0. -1.
  1000024    1    1    2    0    0 -0.11732232497E+03 -0.42475198952E+03  0.15256871148E+03  0.50000000000E+03  0.18039957800E+03 0.  1.
 -1000024    1    1    2    0    0  0.11732232497E+03  0.42475198952E+03 -0.15256871148E+03  0.50000000000E+03  0.18039957800E+03 0.  1.
</event>
<event>
 4   0  0.1092222E-03  0.2236068E+02  0.7957747E-01  0.1516063E+00
      -11   -1    0    0    0    0  0.00000000000E+00  0.00000000000E+00  0.50000000000E+03  0.50000000000E+03  0.00000000000E+00 0.  1.
       11   -1    0    0    0    0 -0.00000000000E+00 -0.00000000000E+00 -0.50000000000E+03  0.50000000000E+03  0.00000000000E+00 0. -1.
  1000024    1    1    2    0    0 -0.44173894800E+03 -0.14812603735E+03 -0.19528725880E+02  0.50000000000E+03  0.18039957800E+03 0. -1.
 -1000024    1    1    2    0    0  0.44173894800E+03  0.14812603735E+03  0.19528725880E+02  0.50000000000E+03  0.18039957800E+03 0.  1.
</event>
<event>
 4   0  0.7366543E-04  0.2236068E+02  0.7957747E-01  0.1516063E+00
      -11   -1    0    0    0    0  0.00000000000E+00  0.00000000000E+00  0.50000000000E+03  0.50000000000E+03  0.00000000000E+00 0.  1.
       11   -1    0    0    0    0 -0.00000000000E+00 -0.00000000000E+00 -0.50000000000E+03  0.50000000000E+03  0.00000000000E+00 0. -1.
  1000024    1    1    2    0    0  0.45224649339E+03 -0.89592444468E+02 -0.70016393569E+02  0.50000000000E+03  0.18039957800E+03 0.  1.
 -1000024    1    1    2    0    0 -0.45224649339E+03  0.89592444468E+02  0.70016393569E+02  0.50000000000E+03  0.18039957800E+03 0. -1.
</event>
<event>
 4   0  0.7366543E-04  0.2236068E+02  0.7957747E-01  0.1516063E+00
      -11   -1    0    0    0    0  0.00000000000E+00  0.00000000000E+00  0.50000000000E+03  0.50000000000E+03  0.00000000000E+00 0.  1.
       11   -1    0    0    0    0 -0.00000000000E+00 -0.00000000000E+00 -0.50000000000E+03  0.50000000000E+03  0.00000000000E+00 0. -1.
  1000024    1    1    2    0    0  0.22217796709E+03 -0.24415991888E+03  0.32936131711E+03  0.50000000000E+03  0.18039957800E+03 0. -1.
 -1000024    1    1    2    0    0 -0.22217796709E+03  0.24415991888E+03 -0.32936131711E+03  0.50000000000E+03  0.18039957800E+03 0. -1.
</event>
<event>
 4   0  0.1092222E-03  0.2236068E+02  0.7957747E-01  0.1516063E+00
      -11   -1    0    0    0    0  0.00000000000E+00  0.00000000000E+00  0.50000000000E+03  0.50000000000E+03  0.00000000000E+00 0.  1.
       11   -1    0    0    0    0 -0.00000000000E+00 -0.00000000000E+00 -0.50000000000E+03  0.50000000000E+03  0.00000000000E+00 0. -1.
  1000024    1    1    2    0    0 -0.30466196360E+03 -0.54053452447E+02  0.34887720543E+03  0.50000000000E+03  0.18039957800E+03 0.  1.
 -1000024    1    1    2    0    0  0.30466196360E+03  0.54053452447E+02 -0.34887720543E+03  0.50000000000E+03  0.18039957800E+03 0. -1.
</event>
<event>
 4   0  0.7366543E-04  0.2236068E+02  0.7957747E-01  0.1516063E+00
      -11   -1    0    0    0    0  0.00000000000E+00  0.00000000000E+00  0.50000000000E+03  0.50000000000E+03  0.00000000000E+00 0.  1.
       11   -1    0    0    0    0 -0.00000000000E+00 -0.00000000000E+00 -0.50000000000E+03  0.50000000000E+03  0.00000000000E+00 0. -1.
  1000024    1    1    2    0    0  0.43998991008E+02  0.26230888961E+03  0.38303280209E+03  0.50000000000E+03  0.18039957800E+03 0. -1.
 -1000024    1    1    2    0    0 -0.43998991008E+02 -0.26230888961E+03 -0.38303280209E+03  0.50000000000E+03  0.18039957800E+03 0. -1.
</event>
<event>
 4   0  0.6712789E-04  0.2236068E+02  0.7957747E-01  0.1516063E+00
      -11   -1    0    0    0    0  0.00000000000E+00  0.00000000000E+00  0.50000000000E+03  0.50000000000E+03  0.00000000000E+00 0.  1.
       11   -1    0    0    0    0 -0.00000000000E+00 -0.00000000000E+00 -0.50000000000E+03  0.50000000000E+03  0.00000000000E+00 0. -1.
  1000024    1    1    2    0    0 -0.21664806762E+03  0.39693990659E+03  0.11383460638E+03  0.50000000000E+03  0.18039957800E+03 0. -1.
 -1000024    1    1    2    0    0  0.21664806762E+03 -0.39693990659E+03 -0.11383460638E+03  0.50000000000E+03  0.18039957800E+03 0.  1.
</event>
<event>
 4   0  0.1092222E-03  0.2236068E+02  0.7957747E-01  0.1516063E+00
      -11   -1    0    0    0    0  0.00000000000E+00  0.00000000000E+00  0.50000000000E+03  0.50000000000E+03  0.00000000000E+00 0.  1.
       11   -1    0    0    0    0 -0.00000000000E+00 -0.00000000000E+00 -0.50000000000E+03  0.50000000000E+03  0.00000000000E+00 0. -1.
  1000024    1    1    2    0    0 -0.14181180956E+03  0.23315795559E+03  0.37813062647E+03  0.50000000000E+03  0.18039957800E+03 0. -1.
 -1000024    1    1    2    0    0  0.14181180956E+03 -0.23315795559E+03 -0.37813062647E+03  0.50000000000E+03  0.18039957800E+03 0.  1.
</event>
<event>
 4   0  0.7366543E-04  0.2236068E+02  0.7957747E-01  0.1516063E+00
      -11   -1    0    0    0    0  0.00000000000E+00  0.00000000000E+00  0.50000000000E+03  0.50000000000E+03  0.00000000000E+00 0.  1.
       11   -1    0    0    0    0 -0.00000000000E+00 -0.00000000000E+00 -0.50000000000E+03  0.50000000000E+03  0.00000000000E+00 0. -1.
  1000024    1    1    2    0    0 -0.16406380140E+03 -0.80878595845E+02  0.42894954722E+03  0.50000000000E+03  0.18039957800E+03 0. -1.
 -1000024    1    1    2    0    0  0.16406380140E+03  0.80878595845E+02 -0.42894954722E+03  0.50000000000E+03  0.18039957800E+03 0.  1.
</event>
<event>
 4   0  0.6712789E-04  0.2236068E+02  0.7957747E-01  0.1516063E+00
      -11   -1    0    0    0    0  0.00000000000E+00  0.00000000000E+00  0.50000000000E+03  0.50000000000E+03  0.00000000000E+00 0.  1.
       11   -1    0    0    0    0 -0.00000000000E+00 -0.00000000000E+00 -0.50000000000E+03  0.50000000000E+03  0.00000000000E+00 0. -1.
  1000024    1    1    2    0    0 -0.13425993881E+03 -0.14449366245E+03  0.42255395230E+03  0.50000000000E+03  0.18039957800E+03 0. -1.
 -1000024    1    1    2    0    0  0.13425993881E+03  0.14449366245E+03 -0.42255395230E+03  0.50000000000E+03  0.18039957800E+03 0.  1.
</event>
<event>
 4   0  0.1092222E-03  0.2236068E+02  0.7957747E-01  0.1516063E+00
      -11   -1    0    0    0    0  0.00000000000E+00  0.00000000000E+00  0.50000000000E+03  0.50000000000E+03  0.00000000000E+00 0.  1.
       11   -1    0    0    0    0 -0.00000000000E+00 -0.00000000000E+00 -0.50000000000E+03  0.50000000000E+03  0.00000000000E+00 0. -1.
  1000024    1    1    2    0    0  0.17534366776E+03 -0.40389420656E+03  0.15355800320E+03  0.50000000000E+03  0.18039957800E+03 0. -1.
 -1000024    1    1    2    0    0 -0.17534366776E+03  0.40389420656E+03 -0.15355800320E+03  0.50000000000E+03  0.18039957800E+03 0.  1.
</event>
<event>
 4   0  0.6712789E-04  0.2236068E+02  0.7957747E-01  0.1516063E+00
      -11   -1    0    0    0    0  0.00000000000E+00  0.00000000000E+00  0.50000000000E+03  0.50000000000E+03  0.00000000000E+00 0.  1.
       11   -1    0    0    0    0 -0.00000000000E+00 -0.00000000000E+00 -0.50000000000E+03  0.50000000000E+03  0.00000000000E+00 0. -1.
  1000024    1    1    2    0    0  0.44345633035E+02  0.36614737855E+03  0.28535163267E+03  0.50000000000E+03  0.18039957800E+03 0.  1.
 -1000024    1    1    2    0    0 -0.44345633035E+02 -0.36614737855E+03 -0.28535163267E+03  0.50000000000E+03  0.18039957800E+03 0. -1.
</event>
<event>
 4   0  0.1092222E-03  0.2236068E+02  0.7957747E-01  0.1516063E+00
      -11   -1    0    0    0    0  0.00000000000E+00  0.00000000000E+00  0.50000000000E+03  0.50000000000E+03  0.00000000000E+00 0.  1.
       11   -1    0    0    0    0 -0.00000000000E+00 -0.00000000000E+00 -0.50000000000E+03  0.50000000000E+03  0.00000000000E+00 0. -1.
  1000024    1    1    2    0    0  0.38086854061E+03  0.24921865718E+03  0.10141601424E+03  0.50000000000E+03  0.18039957800E+03 0.  1.
 -1000024    1    1    2    0    0 -0.38086854061E+03 -0.24921865718E+03 -0.10141601424E+03  0.50000000000E+03  0.18039957800E+03 0. -1.
</event>
<event>
 4   0  0.1092222E-03  0.2236068E+02  0.7957747E-01  0.1516063E+00
      -11   -1    0    0    0    0  0.00000000000E+00  0.00000000000E+00  0.50000000000E+03  0.50000000000E+03  0.00000000000E+00 0.  1.
       11   -1    0    0    0    0 -0.00000000000E+00 -0.00000000000E+00 -0.50000000000E+03  0.50000000000E+03  0.00000000000E+00 0. -1.
  1000024    1    1    2    0    0 -0.34260934610E+01 -0.43771526829E+03  0.16077810190E+03  0.50000000000E+03  0.18039957800E+03 0. -1.
 -1000024    1    1    2    0    0  0.34260934610E+01  0.43771526829E+03 -0.16077810190E+03  0.50000000000E+03  0.18039957800E+03 0.  1.
</event>
<event>
 4   0  0.1092222E-03  0.2236068E+02  0.7957747E-01  0.1516063E+00
      -11   -1    0    0    0    0  0.00000000000E+00  0.00000000000E+00  0.50000000000E+03  0.50000000000E+03  0.00000000000E+00 0.  1.
       11   -1    0    0    0    0 -0.00000000000E+00 -0.00000000000E+00 -0.50000000000E+03  0.50000000000E+03  0.00000000000E+00 0. -1.
  1000024    1    1    2    0    0  0.43044464851E+03  0.17844612525E+03 -0.18176281459E+02  0.50000000000E+03  0.18039957800E+03 0.  1.
 -1000024    1    1    2    0    0 -0.43044464851E+03 -0.17844612525E+03  0.18176281459E+02  0.50000000000E+03  0.18039957800E+03 0. -1.
</event>
<event>
 4   0  0.1092222E-03  0.2236068E+02  0.7957747E-01  0.1516063E+00
      -11   -1    0    0    0    0  0.00000000000E+00  0.00000000000E+00  0.50000000000E+03  0.50000000000E+03  0.00000000000E+00 0.  1.
       11   -1    0    0    0    0 -0.00000000000E+00 -0.00000000000E+00 -0.50000000000E+03  0.50000000000E+03  0.00000000000E+00 0. -1.
  1000024    1    1    2    0    0 -0.41945610832E+02  0.21204966169E+03  0.41319668315E+03  0.50000000000E+03  0.18039957800E+03 0.  1.
 -1000024    1    1    2    0    0  0.41945610832E+02 -0.21204966169E+03 -0.41319668315E+03  0.50000000000E+03  0.18039957800E+03 0.  1.
</event>
<event>
 4   0  0.1092222E-03  0.2236068E+02  0.7957747E-01  0.1516063E+00
      -11   -1    0    0    0    0  0.00000000000E+00  0.00000000000E+00  0.50000000000E+03  0.50000000000E+03  0.00000000000E+00 0.  1.
       11   -1    0    0    0    0 -0.00000000000E+00 -0.00000000000E+00 -0.50000000000E+03  0.50000000000E+03  0.00000000000E+00 0. -1.
  1000024    1    1    2    0    0 -0.19615183772E+03  0.24922470043E+03  0.34185888538E+03  0.50000000000E+03  0.18039957800E+03 0.  1.
 -1000024    1    1    2    0    0  0.19615183772E+03 -0.24922470043E+03 -0.34185888538E+03  0.50000000000E+03  0.18039957800E+03 0. -1.
</event>
<event>
 4   0  0.1092222E-03  0.2236068E+02  0.7957747E-01  0.1516063E+00
      -11   -1    0    0    0    0  0.00000000000E+00  0.00000000000E+00  0.50000000000E+03  0.50000000000E+03  0.00000000000E+00 0.  1.
       11   -1    0    0    0    0 -0.00000000000E+00 -0.00000000000E+00 -0.50000000000E+03  0.50000000000E+03  0.00000000000E+00 0. -1.
  1000024    1    1    2    0    0  0.69006634162E+02 -0.31129447992E+03  0.34027903766E+03  0.50000000000E+03  0.18039957800E+03 0. -1.
 -1000024    1    1    2    0    0 -0.69006634162E+02  0.31129447992E+03 -0.34027903766E+03  0.50000000000E+03  0.18039957800E+03 0.  1.
</event>
<event>
 4   0  0.1092222E-03  0.2236068E+02  0.7957747E-01  0.1516063E+00
      -11   -1    0    0    0    0  0.00000000000E+00  0.00000000000E+00  0.50000000000E+03  0.50000000000E+03  0.00000000000E+00 0.  1.
       11   -1    0    0    0    0 -0.00000000000E+00 -0.00000000000E+00 -0.50000000000E+03  0.50000000000E+03  0.00000000000E+00 0. -1.
  1000024    1    1    2    0    0  0.10680549273E+03 -0.18902406889E+03  0.41269659601E+03  0.50000000000E+03  0.18039957800E+03 0. -1.
 -1000024    1    1    2    0    0 -0.10680549273E+03  0.18902406889E+03 -0.41269659601E+03  0.50000000000E+03  0.18039957800E+03 0.  1.
</event>
<event>
 4   0  0.6712789E-04  0.2236068E+02  0.7957747E-01  0.1516063E+00
      -11   -1    0    0    0    0  0.00000000000E+00  0.00000000000E+00  0.50000000000E+03  0.50000000000E+03  0.00000000000E+00 0.  1.
       11   -1    0    0    0    0 -0.00000000000E+00 -0.00000000000E+00 -0.50000000000E+03  0.50000000000E+03  0.00000000000E+00 0. -1.
  1000024    1    1    2    0    0 -0.11562214577E+03  0.29789576647E+03  0.33962571160E+03  0.50000000000E+03  0.18039957800E+03 0. -1.
 -1000024    1    1    2    0    0  0.11562214577E+03 -0.29789576647E+03 -0.33962571160E+03  0.50000000000E+03  0.18039957800E+03 0.  1.
</event>
<event>
 4   0  0.6712789E-04  0.2236068E+02  0.7957747E-01  0.1516063E+00
      -11   -1    0    0    0    0  0.00000000000E+00  0.00000000000E+00  0.50000000000E+03  0.50000000000E+03  0.00000000000E+00 0.  1.
       11   -1    0    0    0    0 -0.00000000000E+00 -0.00000000000E+00 -0.50000000000E+03  0.50000000000E+03  0.00000000000E+00 0. -1.
  1000024    1    1    2    0    0  0.37090188816E+03 -0.33770509045E+02  0.28061955445E+03  0.50000000000E+03  0.18039957800E+03 0. -1.
 -1000024    1    1    2    0    0 -0.37090188816E+03  0.33770509045E+02 -0.28061955445E+03  0.50000000000E+03  0.18039957800E+03 0.  1.
</event>
<event>
 4   0  0.6712789E-04  0.2236068E+02  0.7957747E-01  0.1516063E+00
      -11   -1    0    0    0    0  0.00000000000E+00  0.00000000000E+00  0.50000000000E+03  0.50000000000E+03  0.00000000000E+00 0.  1.
       11   -1    0    0    0    0 -0.00000000000E+00 -0.00000000000E+00 -0.50000000000E+03  0.50000000000E+03  0.00000000000E+00 0. -1.
  1000024    1    1    2    0    0  0.19787044698E+03  0.16800831003E+03  0.38739706534E+03  0.50000000000E+03  0.18039957800E+03 0. -1.
 -1000024    1    1    2    0    0 -0.19787044698E+03 -0.16800831003E+03 -0.38739706534E+03  0.50000000000E+03  0.18039957800E+03 0. -1.
</event>
<event>
 4   0  0.1092222E-03  0.2236068E+02  0.7957747E-01  0.1516063E+00
      -11   -1    0    0    0    0  0.00000000000E+00  0.00000000000E+00  0.50000000000E+03  0.50000000000E+03  0.00000000000E+00 0.  1.
       11   -1    0    0    0    0 -0.00000000000E+00 -0.00000000000E+00 -0.50000000000E+03  0.50000000000E+03  0.00000000000E+00 0. -1.
  1000024    1    1    2    0    0 -0.22403818185E+03 -0.31059176369E+03  0.26607450396E+03  0.50000000000E+03  0.18039957800E+03 0. -1.
 -1000024    1    1    2    0    0  0.22403818185E+03  0.31059176369E+03 -0.26607450396E+03  0.50000000000E+03  0.18039957800E+03 0.  1.
</event>
<event>
 4   0  0.1092222E-03  0.2236068E+02  0.7957747E-01  0.1516063E+00
      -11   -1    0    0    0    0  0.00000000000E+00  0.00000000000E+00  0.50000000000E+03  0.50000000000E+03  0.00000000000E+00 0.  1.
       11   -1    0    0    0    0 -0.00000000000E+00 -0.00000000000E+00 -0.50000000000E+03  0.50000000000E+03  0.00000000000E+00 0. -1.
  1000024    1    1    2    0    0  0.33483888036E+03  0.26555491630E+03  0.18659984696E+03  0.50000000000E+03  0.18039957800E+03 0.  1.
 -1000024    1    1    2    0    0 -0.33483888036E+03 -0.26555491630E+03 -0.18659984696E+03  0.50000000000E+03  0.18039957800E+03 0.  1.
</event>
<event>
 4   0  0.7366543E-04  0.2236068E+02  0.7957747E-01  0.1516063E+00
      -11   -1    0    0    0    0  0.00000000000E+00  0.00000000000E+00  0.50000000000E+03  0.50000000000E+03  0.00000000000E+00 0.  1.
       11   -1    0    0    0    0 -0.00000000000E+00 -0.00000000000E+00 -0.50000000000E+03  0.50000000000E+03  0.00000000000E+00 0. -1.
  1000024    1    1    2    0    0  0.33634989848E+03 -0.25637214394E+03  0.19646389454E+03  0.50000000000E+03  0.18039957800E+03 0. -1.
 -1000024    1    1    2    0    0 -0.33634989848E+03  0.25637214394E+03 -0.19646389454E+03  0.50000000000E+03  0.18039957800E+03 0.  1.
</event>
<event>
 4   0  0.6712789E-04  0.2236068E+02  0.7957747E-01  0.1516063E+00
      -11   -1    0    0    0    0  0.00000000000E+00  0.00000000000E+00  0.50000000000E+03  0.50000000000E+03  0.00000000000E+00 0.  1.
       11   -1    0    0    0    0 -0.00000000000E+00 -0.00000000000E+00 -0.50000000000E+03  0.50000000000E+03  0.00000000000E+00 0. -1.
  1000024    1    1    2    0    0 -0.35863395969E+03  0.28401380452E+00  0.29805636136E+03  0.50000000000E+03  0.18039957800E+03 0. -1.
 -1000024    1    1    2    0    0  0.35863395969E+03 -0.28401380452E+00 -0.29805636136E+03  0.50000000000E+03  0.18039957800E+03 0.  1.
</event>
<event>
 4   0  0.1092222E-03  0.2236068E+02  0.7957747E-01  0.1516063E+00
      -11   -1    0    0    0    0  0.00000000000E+00  0.00000000000E+00  0.50000000000E+03  0.50000000000E+03  0.00000000000E+00 0.  1.
       11   -1    0    0    0    0 -0.00000000000E+00 -0.00000000000E+00 -0.50000000000E+03  0.50000000000E+03  0.00000000000E+00 0. -1.
  1000024    1    1    2    0    0  0.40191577269E+03 -0.13246973199E+03  0.19588638041E+03  0.50000000000E+03  0.18039957800E+03 0.  1.
 -1000024    1    1    2    0    0 -0.40191577269E+03  0.13246973199E+03 -0.19588638041E+03  0.50000000000E+03  0.18039957800E+03 0.  1.
</event>
<event>
 4   0  0.1092222E-03  0.2236068E+02  0.7957747E-01  0.1516063E+00
      -11   -1    0    0    0    0  0.00000000000E+00  0.00000000000E+00  0.50000000000E+03  0.50000000000E+03  0.00000000000E+00 0.  1.
       11   -1    0    0    0    0 -0.00000000000E+00 -0.00000000000E+00 -0.50000000000E+03  0.50000000000E+03  0.00000000000E+00 0. -1.
  1000024    1    1    2    0    0 -0.39340015279E+03 -0.85021931893E+02  0.23550707662E+03  0.50000000000E+03  0.18039957800E+03 0.  1.
 -1000024    1    1    2    0    0  0.39340015279E+03  0.85021931893E+02 -0.23550707662E+03  0.50000000000E+03  0.18039957800E+03 0. -1.
</event>
<event>
 4   0  0.1092222E-03  0.2236068E+02  0.7957747E-01  0.1516063E+00
      -11   -1    0    0    0    0  0.00000000000E+00  0.00000000000E+00  0.50000000000E+03  0.50000000000E+03  0.00000000000E+00 0.  1.
       11   -1    0    0    0    0 -0.00000000000E+00 -0.00000000000E+00 -0.50000000000E+03  0.50000000000E+03  0.00000000000E+00 0. -1.
  1000024    1    1    2    0    0 -0.90432450438E+02 -0.42607726994E+03  0.16654165906E+03  0.50000000000E+03  0.18039957800E+03 0.  1.
 -1000024    1    1    2    0    0  0.90432450438E+02  0.42607726994E+03 -0.16654165906E+03  0.50000000000E+03  0.18039957800E+03 0. -1.
</event>
<event>
 4   0  0.6712789E-04  0.2236068E+02  0.7957747E-01  0.1516063E+00
      -11   -1    0    0    0    0  0.00000000000E+00  0.00000000000E+00  0.50000000000E+03  0.50000000000E+03  0.00000000000E+00 0.  1.
       11   -1    0    0    0    0 -0.00000000000E+00 -0.00000000000E+00 -0.50000000000E+03  0.50000000000E+03  0.00000000000E+00 0. -1.
  1000024    1    1    2    0    0  0.29453484683E+03 -0.26973947963E+03  0.24071939970E+03  0.50000000000E+03  0.18039957800E+03 0.  1.
 -1000024    1    1    2    0    0 -0.29453484683E+03  0.26973947963E+03 -0.24071939970E+03  0.50000000000E+03  0.18039957800E+03 0. -1.
</event>
<event>
 4   0  0.7366543E-04  0.2236068E+02  0.7957747E-01  0.1516063E+00
      -11   -1    0    0    0    0  0.00000000000E+00  0.00000000000E+00  0.50000000000E+03  0.50000000000E+03  0.00000000000E+00 0.  1.
       11   -1    0    0    0    0 -0.00000000000E+00 -0.00000000000E+00 -0.50000000000E+03  0.50000000000E+03  0.00000000000E+00 0. -1.
  1000024    1    1    2    0    0 -0.19711032752E+03  0.41823793895E+03 -0.60667433322E+02  0.50000000000E+03  0.18039957800E+03 0.  1.
 -1000024    1    1    2    0    0  0.19711032752E+03 -0.41823793895E+03  0.60667433322E+02  0.50000000000E+03  0.18039957800E+03 0. -1.
</event>
<event>
 4   0  0.7366543E-04  0.2236068E+02  0.7957747E-01  0.1516063E+00
      -11   -1    0    0    0    0  0.00000000000E+00  0.00000000000E+00  0.50000000000E+03  0.50000000000E+03  0.00000000000E+00 0.  1.
       11   -1    0    0    0    0 -0.00000000000E+00 -0.00000000000E+00 -0.50000000000E+03  0.50000000000E+03  0.00000000000E+00 0. -1.
  1000024    1    1    2    0    0  0.42745531537E+03  0.17633361065E+02  0.18554517024E+03  0.50000000000E+03  0.18039957800E+03 0. -1.
 -1000024    1    1    2    0    0 -0.42745531537E+03 -0.17633361065E+02 -0.18554517024E+03  0.50000000000E+03  0.18039957800E+03 0.  1.
</event>
<event>
 4   0  0.1092222E-03  0.2236068E+02  0.7957747E-01  0.1516063E+00
      -11   -1    0    0    0    0  0.00000000000E+00  0.00000000000E+00  0.50000000000E+03  0.50000000000E+03  0.00000000000E+00 0.  1.
       11   -1    0    0    0    0 -0.00000000000E+00 -0.00000000000E+00 -0.50000000000E+03  0.50000000000E+03  0.00000000000E+00 0. -1.
  1000024    1    1    2    0    0 -0.37145353864E+03  0.25665304329E+03  0.11665108770E+03  0.50000000000E+03  0.18039957800E+03 0. -1.
 -1000024    1    1    2    0    0  0.37145353864E+03 -0.25665304329E+03 -0.11665108770E+03  0.50000000000E+03  0.18039957800E+03 0.  1.
</event>
<event>
 4   0  0.1092222E-03  0.2236068E+02  0.7957747E-01  0.1516063E+00
      -11   -1    0    0    0    0  0.00000000000E+00  0.00000000000E+00  0.50000000000E+03  0.50000000000E+03  0.00000000000E+00 0.  1.
       11   -1    0    0    0    0 -0.00000000000E+00 -0.00000000000E+00 -0.50000000000E+03  0.50000000000E+03  0.00000000000E+00 0. -1.
  1000024    1    1    2    0    0 -0.29233077605E+03 -0.33993050641E+03  0.12824180459E+03  0.50000000000E+03  0.18039957800E+03 0. -1.
 -1000024    1    1    2    0    0  0.29233077605E+03  0.33993050641E+03 -0.12824180459E+03  0.50000000000E+03  0.18039957800E+03 0.  1.
</event>
<event>
 4   0  0.7366543E-04  0.2236068E+02  0.7957747E-01  0.1516063E+00
      -11   -1    0    0    0    0  0.00000000000E+00  0.00000000000E+00  0.50000000000E+03  0.50000000000E+03  0.00000000000E+00 0.  1.
       11   -1    0    0    0    0 -0.00000000000E+00 -0.00000000000E+00 -0.50000000000E+03  0.50000000000E+03  0.00000000000E+00 0. -1.
  1000024    1    1    2    0    0 -0.23158117657E+03 -0.32062191137E+02  0.40348254834E+03  0.50000000000E+03  0.18039957800E+03 0. -1.
 -1000024    1    1    2    0    0  0.23158117657E+03  0.32062191137E+02 -0.40348254834E+03  0.50000000000E+03  0.18039957800E+03 0.  1.
</event>
<event>
 4   0  0.1092222E-03  0.2236068E+02  0.7957747E-01  0.1516063E+00
      -11   -1    0    0    0    0  0.00000000000E+00  0.00000000000E+00  0.50000000000E+03  0.50000000000E+03  0.00000000000E+00 0.  1.
       11   -1    0    0    0    0 -0.00000000000E+00 -0.00000000000E+00 -0.50000000000E+03  0.50000000000E+03  0.00000000000E+00 0. -1.
  1000024    1    1    2    0    0 -0.42457207496E+03  0.15137700040E+03  0.11949706763E+03  0.50000000000E+03  0.18039957800E+03 0. -1.
 -1000024    1    1    2    0    0  0.42457207496E+03 -0.15137700040E+03 -0.11949706763E+03  0.50000000000E+03  0.18039957800E+03 0.  1.
</event>
<event>
 4   0  0.7366543E-04  0.2236068E+02  0.7957747E-01  0.1516063E+00
      -11   -1    0    0    0    0  0.00000000000E+00  0.00000000000E+00  0.50000000000E+03  0.50000000000E+03  0.00000000000E+00 0.  1.
       11   -1    0    0    0    0 -0.00000000000E+00 -0.00000000000E+00 -0.50000000000E+03  0.50000000000E+03  0.00000000000E+00 0. -1.
  1000024    1    1    2    0    0  0.38800003287E+02  0.43917612177E+03  0.15190420030E+03  0.50000000000E+03  0.18039957800E+03 0. -1.
 -1000024    1    1    2    0    0 -0.38800003287E+02 -0.43917612177E+03 -0.15190420030E+03  0.50000000000E+03  0.18039957800E+03 0.  1.
</event>
<event>
 4   0  0.6712789E-04  0.2236068E+02  0.7957747E-01  0.1516063E+00
      -11   -1    0    0    0    0  0.00000000000E+00  0.00000000000E+00  0.50000000000E+03  0.50000000000E+03  0.00000000000E+00 0.  1.
       11   -1    0    0    0    0 -0.00000000000E+00 -0.00000000000E+00 -0.50000000000E+03  0.50000000000E+03  0.00000000000E+00 0. -1.
  1000024    1    1    2    0    0  0.86618288643E+02 -0.18730678549E+03  0.41817392607E+03  0.50000000000E+03  0.18039957800E+03 0. -1.
 -1000024    1    1    2    0    0 -0.86618288643E+02  0.18730678549E+03 -0.41817392607E+03  0.50000000000E+03  0.18039957800E+03 0. -1.
</event>
<event>
 4   0  0.1092222E-03  0.2236068E+02  0.7957747E-01  0.1516063E+00
      -11   -1    0    0    0    0  0.00000000000E+00  0.00000000000E+00  0.50000000000E+03  0.50000000000E+03  0.00000000000E+00 0.  1.
       11   -1    0    0    0    0 -0.00000000000E+00 -0.00000000000E+00 -0.50000000000E+03  0.50000000000E+03  0.00000000000E+00 0. -1.
  1000024    1    1    2    0    0  0.22785267844E+03  0.22987092217E+03  0.33570598494E+03  0.50000000000E+03  0.18039957800E+03 0.  1.
 -1000024    1    1    2    0    0 -0.22785267844E+03 -0.22987092217E+03 -0.33570598494E+03  0.50000000000E+03  0.18039957800E+03 0. -1.
</event>
<event>
 4   0  0.1092222E-03  0.2236068E+02  0.7957747E-01  0.1516063E+00
      -11   -1    0    0    0    0  0.00000000000E+00  0.00000000000E+00  0.50000000000E+03  0.50000000000E+03  0.00000000000E+00 0.  1.
       11   -1    0    0    0    0 -0.00000000000E+00 -0.00000000000E+00 -0.50000000000E+03  0.50000000000E+03  0.00000000000E+00 0. -1.
  1000024    1    1    2    0    0 -0.42434001214E+03 -0.18987597795E+03 -0.36587693936E+02  0.50000000000E+03  0.18039957800E+03 0.  1.
 -1000024    1    1    2    0    0  0.42434001214E+03  0.18987597795E+03  0.36587693936E+02  0.50000000000E+03  0.18039957800E+03 0. -1.
</event>
<event>
 4   0  0.6712789E-04  0.2236068E+02  0.7957747E-01  0.1516063E+00
      -11   -1    0    0    0    0  0.00000000000E+00  0.00000000000E+00  0.50000000000E+03  0.50000000000E+03  0.00000000000E+00 0.  1.
       11   -1    0    0    0    0 -0.00000000000E+00 -0.00000000000E+00 -0.50000000000E+03  0.50000000000E+03  0.00000000000E+00 0. -1.
  1000024    1    1    2    0    0 -0.15102289153E+03  0.11250593750E+03  0.42660343707E+03  0.50000000000E+03  0.18039957800E+03 0. -1.
 -1000024    1    1    2    0    0  0.15102289153E+03 -0.11250593750E+03 -0.42660343707E+03  0.50000000000E+03  0.18039957800E+03 0.  1.
</event>
<event>
 4   0  0.1092222E-03  0.2236068E+02  0.7957747E-01  0.1516063E+00
      -11   -1    0    0    0    0  0.00000000000E+00  0.00000000000E+00  0.50000000000E+03  0.50000000000E+03  0.00000000000E+00 0.  1.
       11   -1    0    0    0    0 -0.00000000000E+00 -0.00000000000E+00 -0.50000000000E+03  0.50000000000E+03  0.00000000000E+00 0. -1.
  1000024    1    1    2    0    0 -0.36973534123E+03 -0.11010715800E+03  0.26196981403E+03  0.50000000000E+03  0.18039957800E+03 0.  1.
 -1000024    1    1    2    0    0  0.36973534123E+03  0.11010715800E+03 -0.26196981403E+03  0.50000000000E+03  0.18039957800E+03 0. -1.
</event>
<event>
 4   0  0.1092222E-03  0.2236068E+02  0.7957747E-01  0.1516063E+00
      -11   -1    0    0    0    0  0.00000000000E+00  0.00000000000E+00  0.50000000000E+03  0.50000000000E+03  0.00000000000E+00 0.  1.
       11   -1    0    0    0    0 -0.00000000000E+00 -0.00000000000E+00 -0.50000000000E+03  0.50000000000E+03  0.00000000000E+00 0. -1.
  1000024    1    1    2    0    0 -0.18648698610E+03 -0.39495739485E+03  0.16336233509E+03  0.50000000000E+03  0.18039957800E+03 0.  1.
 -1000024    1    1    2    0    0  0.18648698610E+03  0.39495739485E+03 -0.16336233509E+03  0.50000000000E+03  0.18039957800E+03 0. -1.
</event>
<event>
 4   0  0.1092222E-03  0.2236068E+02  0.7957747E-01  0.1516063E+00
      -11   -1    0    0    0    0  0.00000000000E+00  0.00000000000E+00  0.50000000000E+03  0.50000000000E+03  0.00000000000E+00 0.  1.
       11   -1    0    0    0    0 -0.00000000000E+00 -0.00000000000E+00 -0.50000000000E+03  0.50000000000E+03  0.00000000000E+00 0. -1.
  1000024    1    1    2    0    0 -0.39976981668E+03  0.23859136366E+03 -0.26725402062E+02  0.50000000000E+03  0.18039957800E+03 0. -1.
 -1000024    1    1    2    0    0  0.39976981668E+03 -0.23859136366E+03  0.26725402062E+02  0.50000000000E+03  0.18039957800E+03 0.  1.
</event>
<event>
 4   0  0.1092222E-03  0.2236068E+02  0.7957747E-01  0.1516063E+00
      -11   -1    0    0    0    0  0.00000000000E+00  0.00000000000E+00  0.50000000000E+03  0.50000000000E+03  0.00000000000E+00 0.  1.
       11   -1    0    0    0    0 -0.00000000000E+00 -0.00000000000E+00 -0.50000000000E+03  0.50000000000E+03  0.00000000000E+00 0. -1.
  1000024    1    1    2    0    0  0.20132219513E+03  0.12971696411E+03  0.40012357495E+03  0.50000000000E+03  0.18039957800E+03 0. -1.
 -1000024    1    1    2    0    0 -0.20132219513E+03 -0.12971696411E+03 -0.40012357495E+03  0.50000000000E+03  0.18039957800E+03 0. -1.
</event>
<event>
 4   0  0.7366543E-04  0.2236068E+02  0.7957747E-01  0.1516063E+00
      -11   -1    0    0    0    0  0.00000000000E+00  0.00000000000E+00  0.50000000000E+03  0.50000000000E+03  0.00000000000E+00 0.  1.
       11   -1    0    0    0    0 -0.00000000000E+00 -0.00000000000E+00 -0.50000000000E+03  0.50000000000E+03  0.00000000000E+00 0. -1.
  1000024    1    1    2    0    0 -0.31151485013E+03 -0.33323959387E+03  0.96777391381E+02  0.50000000000E+03  0.18039957800E+03 0. -1.
 -1000024    1    1    2    0    0  0.31151485013E+03  0.33323959387E+03 -0.96777391381E+02  0.50000000000E+03  0.18039957800E+03 0.  1.
</event>
<event>
 4   0  0.1092222E-03  0.2236068E+02  0.7957747E-01  0.1516063E+00
      -11   -1    0    0    0    0  0.00000000000E+00  0.00000000000E+00  0.50000000000E+03  0.50000000000E+03  0.00000000000E+00 0.  1.
       11   -1    0    0    0    0 -0.00000000000E+00 -0.00000000000E+00 -0.50000000000E+03  0.50000000000E+03  0.00000000000E+00 0. -1.
  1000024    1    1    2    0    0 -0.27666624986E+03  0.15442037695E+03  0.34214927390E+03  0.50000000000E+03  0.18039957800E+03 0. -1.
 -1000024    1    1    2    0    0  0.27666624986E+03 -0.15442037695E+03 -0.34214927390E+03  0.50000000000E+03  0.18039957800E+03 0.  1.
</event>
<event>
 4   0  0.6712789E-04  0.2236068E+02  0.7957747E-01  0.1516063E+00
      -11   -1    0    0    0    0  0.00000000000E+00  0.00000000000E+00  0.50000000000E+03  0.50000000000E+03  0.00000000000E+00 0.  1.
       11   -1    0    0    0    0 -0.00000000000E+00 -0.00000000000E+00 -0.50000000000E+03  0.50000000000E+03  0.00000000000E+00 0. -1.
  1000024    1    1    2    0    0  0.37940360153E+03  0.19513966432E+00  0.27112517648E+03  0.50000000000E+03  0.18039957800E+03 0. -1.
 -1000024    1    1    2    0    0 -0.37940360153E+03 -0.19513966432E+00 -0.27112517648E+03  0.50000000000E+03  0.18039957800E+03 0. -1.
</event>
<event>
 4   0  0.1092222E-03  0.2236068E+02  0.7957747E-01  0.1516063E+00
      -11   -1    0    0    0    0  0.00000000000E+00  0.00000000000E+00  0.50000000000E+03  0.50000000000E+03  0.00000000000E+00 0.  1.
       11   -1    0    0    0    0 -0.00000000000E+00 -0.00000000000E+00 -0.50000000000E+03  0.50000000000E+03  0.00000000000E+00 0. -1.
  1000024    1    1    2    0    0 -0.20263836162E+03 -0.33840458341E+03  0.24874891876E+03  0.50000000000E+03  0.18039957800E+03 0.  1.
 -1000024    1    1    2    0    0  0.20263836162E+03  0.33840458341E+03 -0.24874891876E+03  0.50000000000E+03  0.18039957800E+03 0. -1.
</event>
<event>
 4   0  0.1092222E-03  0.2236068E+02  0.7957747E-01  0.1516063E+00
      -11   -1    0    0    0    0  0.00000000000E+00  0.00000000000E+00  0.50000000000E+03  0.50000000000E+03  0.00000000000E+00 0.  1.
       11   -1    0    0    0    0 -0.00000000000E+00 -0.00000000000E+00 -0.50000000000E+03  0.50000000000E+03  0.00000000000E+00 0. -1.
  1000024    1    1    2    0    0 -0.20897795147E+03  0.41443167153E+03  0.45062153628E+02  0.50000000000E+03  0.18039957800E+03 0.  1.
 -1000024    1    1    2    0    0  0.20897795147E+03 -0.41443167153E+03 -0.45062153628E+02  0.50000000000E+03  0.18039957800E+03 0. -1.
</event>
<event>
 4   0  0.6712789E-04  0.2236068E+02  0.7957747E-01  0.1516063E+00
      -11   -1    0    0    0    0  0.00000000000E+00  0.00000000000E+00  0.50000000000E+03  0.50000000000E+03  0.00000000000E+00 0.  1.
       11   -1    0    0    0    0 -0.00000000000E+00 -0.00000000000E+00 -0.50000000000E+03  0.50000000000E+03  0.00000000000E+00 0. -1.
  1000024    1    1    2    0    0 -0.77190104644E+01 -0.41021630953E+03  0.22162804094E+03  0.50000000000E+03  0.18039957800E+03 0.  1.
 -1000024    1    1    2    0    0  0.77190104644E+01  0.41021630953E+03 -0.22162804094E+03  0.50000000000E+03  0.18039957800E+03 0. -1.
</event>
<event>
 4   0  0.1092222E-03  0.2236068E+02  0.7957747E-01  0.1516063E+00
      -11   -1    0    0    0    0  0.00000000000E+00  0.00000000000E+00  0.50000000000E+03  0.50000000000E+03  0.00000000000E+00 0.  1.
       11   -1    0    0    0    0 -0.00000000000E+00 -0.00000000000E+00 -0.50000000000E+03  0.50000000000E+03  0.00000000000E+00 0. -1.
  1000024    1    1    2    0    0  0.44036424463E+03 -0.15165818225E+03 -0.23132662409E+02  0.50000000000E+03  0.18039957800E+03 0.  1.
 -1000024    1    1    2    0    0 -0.44036424463E+03  0.15165818225E+03  0.23132662409E+02  0.50000000000E+03  0.18039957800E+03 0. -1.
</event>
<event>
 4   0  0.1092222E-03  0.2236068E+02  0.7957747E-01  0.1516063E+00
      -11   -1    0    0    0    0  0.00000000000E+00  0.00000000000E+00  0.50000000000E+03  0.50000000000E+03  0.00000000000E+00 0.  1.
       11   -1    0    0    0    0 -0.00000000000E+00 -0.00000000000E+00 -0.50000000000E+03  0.50000000000E+03  0.00000000000E+00 0. -1.
  1000024    1    1    2    0    0  0.10134897687E+03  0.45495558728E+03  0.14134735330E+02  0.50000000000E+03  0.18039957800E+03 0. -1.
 -1000024    1    1    2    0    0 -0.10134897687E+03 -0.45495558728E+03 -0.14134735330E+02  0.50000000000E+03  0.18039957800E+03 0.  1.
</event>
<event>
 4   0  0.7366543E-04  0.2236068E+02  0.7957747E-01  0.1516063E+00
      -11   -1    0    0    0    0  0.00000000000E+00  0.00000000000E+00  0.50000000000E+03  0.50000000000E+03  0.00000000000E+00 0.  1.
       11   -1    0    0    0    0 -0.00000000000E+00 -0.00000000000E+00 -0.50000000000E+03  0.50000000000E+03  0.00000000000E+00 0. -1.
  1000024    1    1    2    0    0  0.33212948306E+03 -0.85369110103E+02  0.31600334458E+03  0.50000000000E+03  0.18039957800E+03 0. -1.
 -1000024    1    1    2    0    0 -0.33212948306E+03  0.85369110103E+02 -0.31600334458E+03  0.50000000000E+03  0.18039957800E+03 0.  1.
</event>
<event>
 4   0  0.1092222E-03  0.2236068E+02  0.7957747E-01  0.1516063E+00
      -11   -1    0    0    0    0  0.00000000000E+00  0.00000000000E+00  0.50000000000E+03  0.50000000000E+03  0.00000000000E+00 0.  1.
       11   -1    0    0    0    0 -0.00000000000E+00 -0.00000000000E+00 -0.50000000000E+03  0.50000000000E+03  0.00000000000E+00 0. -1.
  1000024    1    1    2    0    0 -0.44402427496E+02  0.44073757177E+03  0.14572168515E+03  0.50000000000E+03  0.18039957800E+03 0. -1.
 -1000024    1    1    2    0    0  0.44402427496E+02 -0.44073757177E+03 -0.14572168515E+03  0.50000000000E+03  0.18039957800E+03 0.  1.
</event>
<event>
 4   0  0.1092222E-03  0.2236068E+02  0.7957747E-01  0.1516063E+00
      -11   -1    0    0    0    0  0.00000000000E+00  0.00000000000E+00  0.50000000000E+03  0.50000000000E+03  0.00000000000E+00 0.  1.
       11   -1    0    0    0    0 -0.00000000000E+00 -0.00000000000E+00 -0.50000000000E+03  0.50000000000E+03  0.00000000000E+00 0. -1.
  1000024    1    1    2    0    0 -0.46267585416E+03 -0.42832375003E+02 -0.39400937585E+02  0.50000000000E+03  0.18039957800E+03 0. -1.
 -1000024    1    1    2    0    0  0.46267585416E+03  0.42832375003E+02  0.39400937585E+02  0.50000000000E+03  0.18039957800E+03 0.  1.
</event>
<event>
 4   0  0.1092222E-03  0.2236068E+02  0.7957747E-01  0.1516063E+00
      -11   -1    0    0    0    0  0.00000000000E+00  0.00000000000E+00  0.50000000000E+03  0.50000000000E+03  0.00000000000E+00 0.  1.
       11   -1    0    0    0    0 -0.00000000000E+00 -0.00000000000E+00 -0.50000000000E+03  0.50000000000E+03  0.00000000000E+00 0. -1.
  1000024    1    1    2    0    0  0.14791039634E+03 -0.86669594756E+02  0.43366679404E+03  0.50000000000E+03  0.18039957800E+03 0. -1.
 -1000024    1    1    2    0    0 -0.14791039634E+03  0.86669594756E+02 -0.43366679404E+03  0.50000000000E+03  0.18039957800E+03 0.  1.
</event>
<event>
 4   0  0.1092222E-03  0.2236068E+02  0.7957747E-01  0.1516063E+00
      -11   -1    0    0    0    0  0.00000000000E+00  0.00000000000E+00  0.50000000000E+03  0.50000000000E+03  0.00000000000E+00 0.  1.
       11   -1    0    0    0    0 -0.00000000000E+00 -0.00000000000E+00 -0.50000000000E+03  0.50000000000E+03  0.00000000000E+00 0. -1.
  1000024    1    1    2    0    0  0.44129180574E+03  0.10926155984E+03  0.10382411081E+03  0.50000000000E+03  0.18039957800E+03 0.  1.
 -1000024    1    1    2    0    0 -0.44129180574E+03 -0.10926155984E+03 -0.10382411081E+03  0.50000000000E+03  0.18039957800E+03 0. -1.
</event>
<event>
 4   0  0.1092222E-03  0.2236068E+02  0.7957747E-01  0.1516063E+00
      -11   -1    0    0    0    0  0.00000000000E+00  0.00000000000E+00  0.50000000000E+03  0.50000000000E+03  0.00000000000E+00 0.  1.
       11   -1    0    0    0    0 -0.00000000000E+00 -0.00000000000E+00 -0.50000000000E+03  0.50000000000E+03  0.00000000000E+00 0. -1.
  1000024    1    1    2    0    0 -0.39911530506E+03 -0.73726039584E+02  0.22962455577E+03  0.50000000000E+03  0.18039957800E+03 0. -1.
 -1000024    1    1    2    0    0  0.39911530506E+03  0.73726039584E+02 -0.22962455577E+03  0.50000000000E+03  0.18039957800E+03 0. -1.
</event>
<event>
 4   0  0.1092222E-03  0.2236068E+02  0.7957747E-01  0.1516063E+00
      -11   -1    0    0    0    0  0.00000000000E+00  0.00000000000E+00  0.50000000000E+03  0.50000000000E+03  0.00000000000E+00 0.  1.
       11   -1    0    0    0    0 -0.00000000000E+00 -0.00000000000E+00 -0.50000000000E+03  0.50000000000E+03  0.00000000000E+00 0. -1.
  1000024    1    1    2    0    0 -0.69278218775E+02 -0.21970752221E+03  0.40544435543E+03  0.50000000000E+03  0.18039957800E+03 0. -1.
 -1000024    1    1    2    0    0  0.69278218775E+02  0.21970752221E+03 -0.40544435543E+03  0.50000000000E+03  0.18039957800E+03 0.  1.
</event>
<event>
 4   0  0.6712789E-04  0.2236068E+02  0.7957747E-01  0.1516063E+00
      -11   -1    0    0    0    0  0.00000000000E+00  0.00000000000E+00  0.50000000000E+03  0.50000000000E+03  0.00000000000E+00 0.  1.
       11   -1    0    0    0    0 -0.00000000000E+00 -0.00000000000E+00 -0.50000000000E+03  0.50000000000E+03  0.00000000000E+00 0. -1.
  1000024    1    1    2    0    0  0.30215006268E+03 -0.34431092888E+03  0.87242857203E+02  0.50000000000E+03  0.18039957800E+03 0. -1.
 -1000024    1    1    2    0    0 -0.30215006268E+03  0.34431092888E+03 -0.87242857203E+02  0.50000000000E+03  0.18039957800E+03 0.  1.
</event>
<event>
 4   0  0.1092222E-03  0.2236068E+02  0.7957747E-01  0.1516063E+00
      -11   -1    0    0    0    0  0.00000000000E+00  0.00000000000E+00  0.50000000000E+03  0.50000000000E+03  0.00000000000E+00 0.  1.
       11   -1    0    0    0    0 -0.00000000000E+00 -0.00000000000E+00 -0.50000000000E+03  0.50000000000E+03  0.00000000000E+00 0. -1.
  1000024    1    1    2    0    0 -0.20178319053E+03  0.85031541630E+02  0.41171491739E+03  0.50000000000E+03  0.18039957800E+03 0. -1.
 -1000024    1    1    2    0    0  0.20178319053E+03 -0.85031541630E+02 -0.41171491739E+03  0.50000000000E+03  0.18039957800E+03 0. -1.
</event>
<event>
 4   0  0.7366543E-04  0.2236068E+02  0.7957747E-01  0.1516063E+00
      -11   -1    0    0    0    0  0.00000000000E+00  0.00000000000E+00  0.50000000000E+03  0.50000000000E+03  0.00000000000E+00 0.  1.
       11   -1    0    0    0    0 -0.00000000000E+00 -0.00000000000E+00 -0.50000000000E+03  0.50000000000E+03  0.00000000000E+00 0. -1.
  1000024    1    1    2    0    0  0.37639887897E+02 -0.41583726891E+03  0.20765017910E+03  0.50000000000E+03  0.18039957800E+03 0.  1.
 -1000024    1    1    2    0    0 -0.37639887897E+02  0.41583726891E+03 -0.20765017910E+03  0.50000000000E+03  0.18039957800E+03 0. -1.
</event>
<event>
 4   0  0.6712789E-04  0.2236068E+02  0.7957747E-01  0.1516063E+00
      -11   -1    0    0    0    0  0.00000000000E+00  0.00000000000E+00  0.50000000000E+03  0.50000000000E+03  0.00000000000E+00 0.  1.
       11   -1    0    0    0    0 -0.00000000000E+00 -0.00000000000E+00 -0.50000000000E+03  0.50000000000E+03  0.00000000000E+00 0. -1.
  1000024    1    1    2    0    0 -0.32188682336E+03 -0.10439852015E+03  0.32085170125E+03  0.50000000000E+03  0.18039957800E+03 0. -1.
 -1000024    1    1    2    0    0  0.32188682336E+03  0.10439852015E+03 -0.32085170125E+03  0.50000000000E+03  0.18039957800E+03 0.  1.
</event>
<event>
 4   0  0.1092222E-03  0.2236068E+02  0.7957747E-01  0.1516063E+00
      -11   -1    0    0    0    0  0.00000000000E+00  0.00000000000E+00  0.50000000000E+03  0.50000000000E+03  0.00000000000E+00 0.  1.
       11   -1    0    0    0    0 -0.00000000000E+00 -0.00000000000E+00 -0.50000000000E+03  0.50000000000E+03  0.00000000000E+00 0. -1.
  1000024    1    1    2    0    0 -0.22595964909E+03  0.50018162934E+02  0.40484121902E+03  0.50000000000E+03  0.18039957800E+03 0.  1.
 -1000024    1    1    2    0    0  0.22595964909E+03 -0.50018162934E+02 -0.40484121902E+03  0.50000000000E+03  0.18039957800E+03 0.  1.
</event>
<event>
 4   0  0.1092222E-03  0.2236068E+02  0.7957747E-01  0.1516063E+00
      -11   -1    0    0    0    0  0.00000000000E+00  0.00000000000E+00  0.50000000000E+03  0.50000000000E+03  0.00000000000E+00 0.  1.
       11   -1    0    0    0    0 -0.00000000000E+00 -0.00000000000E+00 -0.50000000000E+03  0.50000000000E+03  0.00000000000E+00 0. -1.
  1000024    1    1    2    0    0  0.70899748347E+02  0.38277967523E+03  0.25672736156E+03  0.50000000000E+03  0.18039957800E+03 0. -1.
 -1000024    1    1    2    0    0 -0.70899748347E+02 -0.38277967523E+03 -0.25672736156E+03  0.50000000000E+03  0.18039957800E+03 0.  1.
</event>
<event>
 4   0  0.6712789E-04  0.2236068E+02  0.7957747E-01  0.1516063E+00
      -11   -1    0    0    0    0  0.00000000000E+00  0.00000000000E+00  0.50000000000E+03  0.50000000000E+03  0.00000000000E+00 0.  1.
       11   -1    0    0    0    0 -0.00000000000E+00 -0.00000000000E+00 -0.50000000000E+03  0.50000000000E+03  0.00000000000E+00 0. -1.
  1000024    1    1    2    0    0 -0.39967917408E+03  0.22683771148E+03  0.79102482368E+02  0.50000000000E+03  0.18039957800E+03 0. -1.
 -1000024    1    1    2    0    0  0.39967917408E+03 -0.22683771148E+03 -0.79102482368E+02  0.50000000000E+03  0.18039957800E+03 0.  1.
</event>
<event>
 4   0  0.1092222E-03  0.2236068E+02  0.7957747E-01  0.1516063E+00
      -11   -1    0    0    0    0  0.00000000000E+00  0.00000000000E+00  0.50000000000E+03  0.50000000000E+03  0.00000000000E+00 0.  1.
       11   -1    0    0    0    0 -0.00000000000E+00 -0.00000000000E+00 -0.50000000000E+03  0.50000000000E+03  0.00000000000E+00 0. -1.
  1000024    1    1    2    0    0 -0.28187192760E+03  0.19895278629E+03  0.31372280363E+03  0.50000000000E+03  0.18039957800E+03 0.  1.
 -1000024    1    1    2    0    0  0.28187192760E+03 -0.19895278629E+03 -0.31372280363E+03  0.50000000000E+03  0.18039957800E+03 0. -1.
</event>
<event>
 4   0  0.1092222E-03  0.2236068E+02  0.7957747E-01  0.1516063E+00
      -11   -1    0    0    0    0  0.00000000000E+00  0.00000000000E+00  0.50000000000E+03  0.50000000000E+03  0.00000000000E+00 0.  1.
       11   -1    0    0    0    0 -0.00000000000E+00 -0.00000000000E+00 -0.50000000000E+03  0.50000000000E+03  0.00000000000E+00 0. -1.
  1000024    1    1    2    0    0 -0.25331803920E+03 -0.34361323444E+03  0.18765902162E+03  0.50000000000E+03  0.18039957800E+03 0.  1.
 -1000024    1    1    2    0    0  0.25331803920E+03  0.34361323444E+03 -0.18765902162E+03  0.50000000000E+03  0.18039957800E+03 0. -1.
</event>
<event>
 4   0  0.7366543E-04  0.2236068E+02  0.7957747E-01  0.1516063E+00
      -11   -1    0    0    0    0  0.00000000000E+00  0.00000000000E+00  0.50000000000E+03  0.50000000000E+03  0.00000000000E+00 0.  1.
       11   -1    0    0    0    0 -0.00000000000E+00 -0.00000000000E+00 -0.50000000000E+03  0.50000000000E+03  0.00000000000E+00 0. -1.
  1000024    1    1    2    0    0 -0.24002456462E+03  0.15571837146E+03  0.36823360714E+03  0.50000000000E+03  0.18039957800E+03 0.  1.
 -1000024    1    1    2    0    0  0.24002456462E+03 -0.15571837146E+03 -0.36823360714E+03  0.50000000000E+03  0.18039957800E+03 0. -1.
</event>
<event>
 4   0  0.7366543E-04  0.2236068E+02  0.7957747E-01  0.1516063E+00
      -11   -1    0    0    0    0  0.00000000000E+00  0.00000000000E+00  0.50000000000E+03  0.50000000000E+03  0.00000000000E+00 0.  1.
       11   -1    0    0    0    0 -0.00000000000E+00 -0.00000000000E+00 -0.50000000000E+03  0.50000000000E+03  0.00000000000E+00 0. -1.
  1000024    1    1    2    0    0  0.12280264779E+03 -0.27937863987E+03  0.35259477809E+03  0.50000000000E+03  0.18039957800E+03 0. -1.
 -1000024    1    1    2    0    0 -0.12280264779E+03  0.27937863987E+03 -0.35259477809E+03  0.50000000000E+03  0.18039957800E+03 0.  1.
</event>
<event>
 4   0  0.6712789E-04  0.2236068E+02  0.7957747E-01  0.1516063E+00
      -11   -1    0    0    0    0  0.00000000000E+00  0.00000000000E+00  0.50000000000E+03  0.50000000000E+03  0.00000000000E+00 0.  1.
       11   -1    0    0    0    0 -0.00000000000E+00 -0.00000000000E+00 -0.50000000000E+03  0.50000000000E+03  0.00000000000E+00 0. -1.
  1000024    1    1    2    0    0  0.28908287123E+03 -0.16039634695E+03  0.32887702520E+03  0.50000000000E+03  0.18039957800E+03 0. -1.
 -1000024    1    1    2    0    0 -0.28908287123E+03  0.16039634695E+03 -0.32887702520E+03  0.50000000000E+03  0.18039957800E+03 0.  1.
</event>
<event>
 4   0  0.1092222E-03  0.2236068E+02  0.7957747E-01  0.1516063E+00
      -11   -1    0    0    0    0  0.00000000000E+00  0.00000000000E+00  0.50000000000E+03  0.50000000000E+03  0.00000000000E+00 0.  1.
       11   -1    0    0    0    0 -0.00000000000E+00 -0.00000000000E+00 -0.50000000000E+03  0.50000000000E+03  0.00000000000E+00 0. -1.
  1000024    1    1    2    0    0 -0.44312067368E+03 -0.11914049591E+03 -0.83099958165E+02  0.50000000000E+03  0.18039957800E+03 0.  1.
 -1000024    1    1    2    0    0  0.44312067368E+03  0.11914049591E+03  0.83099958165E+02  0.50000000000E+03  0.18039957800E+03 0. -1.
</event>
<event>
 4   0  0.7366543E-04  0.2236068E+02  0.7957747E-01  0.1516063E+00
      -11   -1    0    0    0    0  0.00000000000E+00  0.00000000000E+00  0.50000000000E+03  0.50000000000E+03  0.00000000000E+00 0.  1.
       11   -1    0    0    0    0 -0.00000000000E+00 -0.00000000000E+00 -0.50000000000E+03  0.50000000000E+03  0.00000000000E+00 0. -1.
  1000024    1    1    2    0    0 -0.31027405342E+03 -0.30775009545E+03  0.16271411365E+03  0.50000000000E+03  0.18039957800E+03 0.  1.
 -1000024    1    1    2    0    0  0.31027405342E+03  0.30775009545E+03 -0.16271411365E+03  0.50000000000E+03  0.18039957800E+03 0. -1.
</event>
<event>
 4   0  0.1092222E-03  0.2236068E+02  0.7957747E-01  0.1516063E+00
      -11   -1    0    0    0    0  0.00000000000E+00  0.00000000000E+00  0.50000000000E+03  0.50000000000E+03  0.00000000000E+00 0.  1.
       11   -1    0    0    0    0 -0.00000000000E+00 -0.00000000000E+00 -0.50000000000E+03  0.50000000000E+03  0.00000000000E+00 0. -1.
  1000024    1    1    2    0    0  0.40549452545E+03  0.22982615420E+03  0.14495548727E+02  0.50000000000E+03  0.18039957800E+03 0.  1.
 -1000024    1    1    2    0    0 -0.40549452545E+03 -0.22982615420E+03 -0.14495548727E+02  0.50000000000E+03  0.18039957800E+03 0. -1.
</event>
<event>
 4   0  0.6712789E-04  0.2236068E+02  0.7957747E-01  0.1516063E+00
      -11   -1    0    0    0    0  0.00000000000E+00  0.00000000000E+00  0.50000000000E+03  0.50000000000E+03  0.00000000000E+00 0.  1.
       11   -1    0    0    0    0 -0.00000000000E+00 -0.00000000000E+00 -0.50000000000E+03  0.50000000000E+03  0.00000000000E+00 0. -1.
  1000024    1    1    2    0    0 -0.34272572379E+03  0.26155327424E+03  0.17772156662E+03  0.50000000000E+03  0.18039957800E+03 0.  1.
 -1000024    1    1    2    0    0  0.34272572379E+03 -0.26155327424E+03 -0.17772156662E+03  0.50000000000E+03  0.18039957800E+03 0. -1.
</event>
<event>
 4   0  0.1092222E-03  0.2236068E+02  0.7957747E-01  0.1516063E+00
      -11   -1    0    0    0    0  0.00000000000E+00  0.00000000000E+00  0.50000000000E+03  0.50000000000E+03  0.00000000000E+00 0.  1.
       11   -1    0    0    0    0 -0.00000000000E+00 -0.00000000000E+00 -0.50000000000E+03  0.50000000000E+03  0.00000000000E+00 0. -1.
  1000024    1    1    2    0    0 -0.22298900732E+03 -0.31096818845E+03  0.26651581688E+03  0.50000000000E+03  0.18039957800E+03 0. -1.
 -1000024    1    1    2    0    0  0.22298900732E+03  0.31096818845E+03 -0.26651581688E+03  0.50000000000E+03  0.18039957800E+03 0.  1.
</event>
<event>
 4   0  0.6712789E-04  0.2236068E+02  0.7957747E-01  0.1516063E+00
      -11   -1    0    0    0    0  0.00000000000E+00  0.00000000000E+00  0.50000000000E+03  0.50000000000E+03  0.00000000000E+00 0.  1.
       11   -1    0    0    0    0 -0.00000000000E+00 -0.00000000000E+00 -0.50000000000E+03  0.50000000000E+03  0.00000000000E+00 0. -1.
  1000024    1    1    2    0    0 -0.43880143598E+03 -0.15183934302E+03  0.43059330632E+02  0.50000000000E+03  0.18039957800E+03 0. -1.
 -1000024    1    1    2    0    0  0.43880143598E+03  0.15183934302E+03 -0.43059330632E+02  0.50000000000E+03  0.18039957800E+03 0.  1.
</event>
<event>
 4   0  0.1092222E-03  0.2236068E+02  0.7957747E-01  0.1516063E+00
      -11   -1    0    0    0    0  0.00000000000E+00  0.00000000000E+00  0.50000000000E+03  0.50000000000E+03  0.00000000000E+00 0.  1.
       11   -1    0    0    0    0 -0.00000000000E+00 -0.00000000000E+00 -0.50000000000E+03  0.50000000000E+03  0.00000000000E+00 0. -1.
  1000024    1    1    2    0    0 -0.32904142147E+03 -0.13489136906E+03  0.30164889154E+03  0.50000000000E+03  0.18039957800E+03 0. -1.
 -1000024    1    1    2    0    0  0.32904142147E+03  0.13489136906E+03 -0.30164889154E+03  0.50000000000E+03  0.18039957800E+03 0. -1.
</event>
<event>
 4   0  0.1092222E-03  0.2236068E+02  0.7957747E-01  0.1516063E+00
      -11   -1    0    0    0    0  0.00000000000E+00  0.00000000000E+00  0.50000000000E+03  0.50000000000E+03  0.00000000000E+00 0.  1.
       11   -1    0    0    0    0 -0.00000000000E+00 -0.00000000000E+00 -0.50000000000E+03  0.50000000000E+03  0.00000000000E+00 0. -1.
  1000024    1    1    2    0    0 -0.42685755287E+03 -0.11687060108E+03  0.14693496662E+03  0.50000000000E+03  0.18039957800E+03 0. -1.
 -1000024    1    1    2    0    0  0.42685755287E+03  0.11687060108E+03 -0.14693496662E+03  0.50000000000E+03  0.18039957800E+03 0.  1.
</event>
<event>
 4   0  0.1092222E-03  0.2236068E+02  0.7957747E-01  0.1516063E+00
      -11   -1    0    0    0    0  0.00000000000E+00  0.00000000000E+00  0.50000000000E+03  0.50000000000E+03  0.00000000000E+00 0.  1.
       11   -1    0    0    0    0 -0.00000000000E+00 -0.00000000000E+00 -0.50000000000E+03  0.50000000000E+03  0.00000000000E+00 0. -1.
  1000024    1    1    2    0    0  0.37622525520E+03  0.24662841673E+03 -0.12282090076E+03  0.50000000000E+03  0.18039957800E+03 0.  1.
 -1000024    1    1    2    0    0 -0.37622525520E+03 -0.24662841673E+03  0.12282090076E+03  0.50000000000E+03  0.18039957800E+03 0. -1.
</event>
<event>
 4   0  0.1092222E-03  0.2236068E+02  0.7957747E-01  0.1516063E+00
      -11   -1    0    0    0    0  0.00000000000E+00  0.00000000000E+00  0.50000000000E+03  0.50000000000E+03  0.00000000000E+00 0.  1.
       11   -1    0    0    0    0 -0.00000000000E+00 -0.00000000000E+00 -0.50000000000E+03  0.50000000000E+03  0.00000000000E+00 0. -1.
  1000024    1    1    2    0    0 -0.37896370773E+03 -0.35961426918E+02  0.26934972852E+03  0.50000000000E+03  0.18039957800E+03 0.  1.
 -1000024    1    1    2    0    0  0.37896370773E+03  0.35961426918E+02 -0.26934972852E+03  0.50000000000E+03  0.18039957800E+03 0. -1.
</event>
<event>
 4   0  0.6712789E-04  0.2236068E+02  0.7957747E-01  0.1516063E+00
      -11   -1    0    0    0    0  0.00000000000E+00  0.00000000000E+00  0.50000000000E+03  0.50000000000E+03  0.00000000000E+00 0.  1.
       11   -1    0    0    0    0 -0.00000000000E+00 -0.00000000000E+00 -0.50000000000E+03  0.50000000000E+03  0.00000000000E+00 0. -1.
  1000024    1    1    2    0    0  0.38902772094E+03 -0.25585350434E+03  0.25542296637E+02  0.50000000000E+03  0.18039957800E+03 0.  1.
 -1000024    1    1    2    0    0 -0.38902772094E+03  0.25585350434E+03 -0.25542296637E+02  0.50000000000E+03  0.18039957800E+03 0. -1.
</event>
<event>
 4   0  0.1092222E-03  0.2236068E+02  0.7957747E-01  0.1516063E+00
      -11   -1    0    0    0    0  0.00000000000E+00  0.00000000000E+00  0.50000000000E+03  0.50000000000E+03  0.00000000000E+00 0.  1.
       11   -1    0    0    0    0 -0.00000000000E+00 -0.00000000000E+00 -0.50000000000E+03  0.50000000000E+03  0.00000000000E+00 0. -1.
  1000024    1    1    2    0    0  0.41558074911E+03  0.16536709692E+03 -0.13191799152E+03  0.50000000000E+03  0.18039957800E+03 0.  1.
 -1000024    1    1    2    0    0 -0.41558074911E+03 -0.16536709692E+03  0.13191799152E+03  0.50000000000E+03  0.18039957800E+03 0. -1.
</event>
<event>
 4   0  0.1092222E-03  0.2236068E+02  0.7957747E-01  0.1516063E+00
      -11   -1    0    0    0    0  0.00000000000E+00  0.00000000000E+00  0.50000000000E+03  0.50000000000E+03  0.00000000000E+00 0.  1.
       11   -1    0    0    0    0 -0.00000000000E+00 -0.00000000000E+00 -0.50000000000E+03  0.50000000000E+03  0.00000000000E+00 0. -1.
  1000024    1    1    2    0    0  0.16641952884E+03 -0.36188467061E+03  0.24248714987E+03  0.50000000000E+03  0.18039957800E+03 0.  1.
 -1000024    1    1    2    0    0 -0.16641952884E+03  0.36188467061E+03 -0.24248714987E+03  0.50000000000E+03  0.18039957800E+03 0. -1.
</event>
<event>
 4   0  0.7366543E-04  0.2236068E+02  0.7957747E-01  0.1516063E+00
      -11   -1    0    0    0    0  0.00000000000E+00  0.00000000000E+00  0.50000000000E+03  0.50000000000E+03  0.00000000000E+00 0.  1.
       11   -1    0    0    0    0 -0.00000000000E+00 -0.00000000000E+00 -0.50000000000E+03  0.50000000000E+03  0.00000000000E+00 0. -1.
  1000024    1    1    2    0    0 -0.72408670770E+02 -0.41607168941E+03  0.19773043752E+03  0.50000000000E+03  0.18039957800E+03 0.  1.
 -1000024    1    1    2    0    0  0.72408670770E+02  0.41607168941E+03 -0.19773043752E+03  0.50000000000E+03  0.18039957800E+03 0. -1.
</event>
<event>
 4   0  0.7366543E-04  0.2236068E+02  0.7957747E-01  0.1516063E+00
      -11   -1    0    0    0    0  0.00000000000E+00  0.00000000000E+00  0.50000000000E+03  0.50000000000E+03  0.00000000000E+00 0.  1.
       11   -1    0    0    0    0 -0.00000000000E+00 -0.00000000000E+00 -0.50000000000E+03  0.50000000000E+03  0.00000000000E+00 0. -1.
  1000024    1    1    2    0    0  0.42106818673E+03  0.19249826204E+03 -0.55695542853E+02  0.50000000000E+03  0.18039957800E+03 0.  1.
 -1000024    1    1    2    0    0 -0.42106818673E+03 -0.19249826204E+03  0.55695542853E+02  0.50000000000E+03  0.18039957800E+03 0. -1.
</event>
<event>
 4   0  0.6712789E-04  0.2236068E+02  0.7957747E-01  0.1516063E+00
      -11   -1    0    0    0    0  0.00000000000E+00  0.00000000000E+00  0.50000000000E+03  0.50000000000E+03  0.00000000000E+00 0.  1.
       11   -1    0    0    0    0 -0.00000000000E+00 -0.00000000000E+00 -0.50000000000E+03  0.50000000000E+03  0.00000000000E+00 0. -1.
  1000024    1    1    2    0    0  0.18070274463E+03  0.37840460529E+03  0.20399133570E+03  0.50000000000E+03  0.18039957800E+03 0. -1.
 -1000024    1    1    2    0    0 -0.18070274463E+03 -0.37840460529E+03 -0.20399133570E+03  0.50000000000E+03  0.18039957800E+03 0.  1.
</event>
<event>
 4   0  0.1092222E-03  0.2236068E+02  0.7957747E-01  0.1516063E+00
      -11   -1    0    0    0    0  0.00000000000E+00  0.00000000000E+00  0.50000000000E+03  0.50000000000E+03  0.00000000000E+00 0.  1.
       11   -1    0    0    0    0 -0.00000000000E+00 -0.00000000000E+00 -0.50000000000E+03  0.50000000000E+03  0.00000000000E+00 0. -1.
  1000024    1    1    2    0    0  0.37938676225E+03  0.16082209575E+03  0.21830696371E+03  0.50000000000E+03  0.18039957800E+03 0.  1.
 -1000024    1    1    2    0    0 -0.37938676225E+03 -0.16082209575E+03 -0.21830696371E+03  0.50000000000E+03  0.18039957800E+03 0. -1.
</event>
<event>
 4   0  0.7366543E-04  0.2236068E+02  0.7957747E-01  0.1516063E+00
      -11   -1    0    0    0    0  0.00000000000E+00  0.00000000000E+00  0.50000000000E+03  0.50000000000E+03  0.00000000000E+00 0.  1.
       11   -1    0    0    0    0 -0.00000000000E+00 -0.00000000000E+00 -0.50000000000E+03  0.50000000000E+03  0.00000000000E+00 0. -1.
  1000024    1    1    2    0    0 -0.28583465107E+03 -0.10825165960E+03  0.35218762428E+03  0.50000000000E+03  0.18039957800E+03 0. -1.
 -1000024    1    1    2    0    0  0.28583465107E+03  0.10825165960E+03 -0.35218762428E+03  0.50000000000E+03  0.18039957800E+03 0.  1.
</event>
<event>
 4   0  0.1092222E-03  0.2236068E+02  0.7957747E-01  0.1516063E+00
      -11   -1    0    0    0    0  0.00000000000E+00  0.00000000000E+00  0.50000000000E+03  0.50000000000E+03  0.00000000000E+00 0.  1.
       11   -1    0    0    0    0 -0.00000000000E+00 -0.00000000000E+00 -0.50000000000E+03  0.50000000000E+03  0.00000000000E+00 0. -1.
  1000024    1    1    2    0    0  0.22838710896E+03 -0.36673435415E+03  0.17550280398E+03  0.50000000000E+03  0.18039957800E+03 0. -1.
 -1000024    1    1    2    0    0 -0.22838710896E+03  0.36673435415E+03 -0.17550280398E+03  0.50000000000E+03  0.18039957800E+03 0.  1.
</event>
<event>
 4   0  0.1092222E-03  0.2236068E+02  0.7957747E-01  0.1516063E+00
      -11   -1    0    0    0    0  0.00000000000E+00  0.00000000000E+00  0.50000000000E+03  0.50000000000E+03  0.00000000000E+00 0.  1.
       11   -1    0    0    0    0 -0.00000000000E+00 -0.00000000000E+00 -0.50000000000E+03  0.50000000000E+03  0.00000000000E+00 0. -1.
  1000024    1    1    2    0    0 -0.37412715420E+03  0.27712120963E+03 -0.26243092850E+02  0.50000000000E+03  0.18039957800E+03 0.  1.
 -1000024    1    1    2    0    0  0.37412715420E+03 -0.27712120963E+03  0.26243092850E+02  0.50000000000E+03  0.18039957800E+03 0. -1.
</event>
<event>
 4   0  0.7366543E-04  0.2236068E+02  0.7957747E-01  0.1516063E+00
      -11   -1    0    0    0    0  0.00000000000E+00  0.00000000000E+00  0.50000000000E+03  0.50000000000E+03  0.00000000000E+00 0.  1.
       11   -1    0    0    0    0 -0.00000000000E+00 -0.00000000000E+00 -0.50000000000E+03  0.50000000000E+03  0.00000000000E+00 0. -1.
  1000024    1    1    2    0    0  0.30873054441E+03 -0.51570671502E+02  0.34566155275E+03  0.50000000000E+03  0.18039957800E+03 0.  1.
 -1000024    1    1    2    0    0 -0.30873054441E+03  0.51570671502E+02 -0.34566155275E+03  0.50000000000E+03  0.18039957800E+03 0. -1.
</event>
<event>
 4   0  0.6712789E-04  0.2236068E+02  0.7957747E-01  0.1516063E+00
      -11   -1    0    0    0    0  0.00000000000E+00  0.00000000000E+00  0.50000000000E+03  0.50000000000E+03  0.00000000000E+00 0.  1.
       11   -1    0    0    0    0 -0.00000000000E+00 -0.00000000000E+00 -0.50000000000E+03  0.50000000000E+03  0.00000000000E+00 0. -1.
  1000024    1    1    2    0    0 -0.26966405073E+03  0.29585395895E+03 -0.23918136837E+03  0.50000000000E+03  0.18039957800E+03 0.  1.
 -1000024    1    1    2    0    0  0.26966405073E+03 -0.29585395895E+03  0.23918136837E+03  0.50000000000E+03  0.18039957800E+03 0. -1.
</event>
<event>
 4   0  0.1092222E-03  0.2236068E+02  0.7957747E-01  0.1516063E+00
      -11   -1    0    0    0    0  0.00000000000E+00  0.00000000000E+00  0.50000000000E+03  0.50000000000E+03  0.00000000000E+00 0.  1.
       11   -1    0    0    0    0 -0.00000000000E+00 -0.00000000000E+00 -0.50000000000E+03  0.50000000000E+03  0.00000000000E+00 0. -1.
  1000024    1    1    2    0    0  0.22080916893E+03  0.95872856489E+02  0.39938414911E+03  0.50000000000E+03  0.18039957800E+03 0.  1.
 -1000024    1    1    2    0    0 -0.22080916893E+03 -0.95872856489E+02 -0.39938414911E+03  0.50000000000E+03  0.18039957800E+03 0. -1.
</event>
<event>
 4   0  0.7366543E-04  0.2236068E+02  0.7957747E-01  0.1516063E+00
      -11   -1    0    0    0    0  0.00000000000E+00  0.00000000000E+00  0.50000000000E+03  0.50000000000E+03  0.00000000000E+00 0.  1.
       11   -1    0    0    0    0 -0.00000000000E+00 -0.00000000000E+00 -0.50000000000E+03  0.50000000000E+03  0.00000000000E+00 0. -1.
  1000024    1    1    2    0    0  0.48733958781E+02 -0.38126954805E+03  0.26403508336E+03  0.50000000000E+03  0.18039957800E+03 0. -1.
 -1000024    1    1    2    0    0 -0.48733958781E+02  0.38126954805E+03 -0.26403508336E+03  0.50000000000E+03  0.18039957800E+03 0.  1.
</event>
<event>
 4   0  0.7366543E-04  0.2236068E+02  0.7957747E-01  0.1516063E+00
      -11   -1    0    0    0    0  0.00000000000E+00  0.00000000000E+00  0.50000000000E+03  0.50000000000E+03  0.00000000000E+00 0.  1.
       11   -1    0    0    0    0 -0.00000000000E+00 -0.00000000000E+00 -0.50000000000E+03  0.50000000000E+03  0.00000000000E+00 0. -1.
  1000024    1    1    2    0    0  0.26524658888E+03  0.30978137886E+03  0.22613212213E+03  0.50000000000E+03  0.18039957800E+03 0. -1.
 -1000024    1    1    2    0    0 -0.26524658888E+03 -0.30978137886E+03 -0.22613212213E+03  0.50000000000E+03  0.18039957800E+03 0.  1.
</event>
<event>
 4   0  0.1092222E-03  0.2236068E+02  0.7957747E-01  0.1516063E+00
      -11   -1    0    0    0    0  0.00000000000E+00  0.00000000000E+00  0.50000000000E+03  0.50000000000E+03  0.00000000000E+00 0.  1.
       11   -1    0    0    0    0 -0.00000000000E+00 -0.00000000000E+00 -0.50000000000E+03  0.50000000000E+03  0.00000000000E+00 0. -1.
  1000024    1    1    2    0    0 -0.24174257930E+03  0.26852561348E+03  0.29480588955E+03  0.50000000000E+03  0.18039957800E+03 0. -1.
 -1000024    1    1    2    0    0  0.24174257930E+03 -0.26852561348E+03 -0.29480588955E+03  0.50000000000E+03  0.18039957800E+03 0.  1.
</event>
<event>
 4   0  0.1092222E-03  0.2236068E+02  0.7957747E-01  0.1516063E+00
      -11   -1    0    0    0    0  0.00000000000E+00  0.00000000000E+00  0.50000000000E+03  0.50000000000E+03  0.00000000000E+00 0.  1.
       11   -1    0    0    0    0 -0.00000000000E+00 -0.00000000000E+00 -0.50000000000E+03  0.50000000000E+03  0.00000000000E+00 0. -1.
  1000024    1    1    2    0    0  0.38662467191E+03  0.24187251335E+03  0.97339830540E+02  0.50000000000E+03  0.18039957800E+03 0. -1.
 -1000024    1    1    2    0    0 -0.38662467191E+03 -0.24187251335E+03 -0.97339830540E+02  0.50000000000E+03  0.18039957800E+03 0.  1.
</event>
<event>
 4   0  0.7366543E-04  0.2236068E+02  0.7957747E-01  0.1516063E+00
      -11   -1    0    0    0    0  0.00000000000E+00  0.00000000000E+00  0.50000000000E+03  0.50000000000E+03  0.00000000000E+00 0.  1.
       11   -1    0    0    0    0 -0.00000000000E+00 -0.00000000000E+00 -0.50000000000E+03  0.50000000000E+03  0.00000000000E+00 0. -1.
  1000024    1    1    2    0    0  0.16842755595E+03 -0.10070338241E+03  0.42302125174E+03  0.50000000000E+03  0.18039957800E+03 0. -1.
 -1000024    1    1    2    0    0 -0.16842755595E+03  0.10070338241E+03 -0.42302125174E+03  0.50000000000E+03  0.18039957800E+03 0. -1.
</event>
<event>
 4   0  0.6712789E-04  0.2236068E+02  0.7957747E-01  0.1516063E+00
      -11   -1    0    0    0    0  0.00000000000E+00  0.00000000000E+00  0.50000000000E+03  0.50000000000E+03  0.00000000000E+00 0.  1.
       11   -1    0    0    0    0 -0.00000000000E+00 -0.00000000000E+00 -0.50000000000E+03  0.50000000000E+03  0.00000000000E+00 0. -1.
  1000024    1    1    2    0    0  0.39728565992E+03  0.80023939362E+02  0.23068650982E+03  0.50000000000E+03  0.18039957800E+03 0. -1.
 -1000024    1    1    2    0    0 -0.39728565992E+03 -0.80023939362E+02 -0.23068650982E+03  0.50000000000E+03  0.18039957800E+03 0.  1.
</event>
<event>
 4   0  0.6712789E-04  0.2236068E+02  0.7957747E-01  0.1516063E+00
      -11   -1    0    0    0    0  0.00000000000E+00  0.00000000000E+00  0.50000000000E+03  0.50000000000E+03  0.00000000000E+00 0.  1.
       11   -1    0    0    0    0 -0.00000000000E+00 -0.00000000000E+00 -0.50000000000E+03  0.50000000000E+03  0.00000000000E+00 0. -1.
  1000024    1    1    2    0    0  0.20277403066E+03  0.39787062405E+03  0.13430432333E+03  0.50000000000E+03  0.18039957800E+03 0. -1.
 -1000024    1    1    2    0    0 -0.20277403066E+03 -0.39787062405E+03 -0.13430432333E+03  0.50000000000E+03  0.18039957800E+03 0.  1.
</event>
<event>
 4   0  0.6712789E-04  0.2236068E+02  0.7957747E-01  0.1516063E+00
      -11   -1    0    0    0    0  0.00000000000E+00  0.00000000000E+00  0.50000000000E+03  0.50000000000E+03  0.00000000000E+00 0.  1.
       11   -1    0    0    0    0 -0.00000000000E+00 -0.00000000000E+00 -0.50000000000E+03  0.50000000000E+03  0.00000000000E+00 0. -1.
  1000024    1    1    2    0    0  0.93488883398E+02 -0.52905746735E+02  0.45378056691E+03  0.50000000000E+03  0.18039957800E+03 0.  1.
 -1000024    1    1    2    0    0 -0.93488883398E+02  0.52905746735E+02 -0.45378056691E+03  0.50000000000E+03  0.18039957800E+03 0.  1.
</event>
<event>
 4   0  0.7366543E-04  0.2236068E+02  0.7957747E-01  0.1516063E+00
      -11   -1    0    0    0    0  0.00000000000E+00  0.00000000000E+00  0.50000000000E+03  0.50000000000E+03  0.00000000000E+00 0.  1.
       11   -1    0    0    0    0 -0.00000000000E+00 -0.00000000000E+00 -0.50000000000E+03  0.50000000000E+03  0.00000000000E+00 0. -1.
  1000024    1    1    2    0    0  0.23907002360E+03 -0.24786395798E+03  0.31442801148E+03  0.50000000000E+03  0.18039957800E+03 0.  1.
 -1000024    1    1    2    0    0 -0.23907002360E+03  0.24786395798E+03 -0.31442801148E+03  0.50000000000E+03  0.18039957800E+03 0. -1.
</event>
<event>
 4   0  0.1092222E-03  0.2236068E+02  0.7957747E-01  0.1516063E+00
      -11   -1    0    0    0    0  0.00000000000E+00  0.00000000000E+00  0.50000000000E+03  0.50000000000E+03  0.00000000000E+00 0.  1.
       11   -1    0    0    0    0 -0.00000000000E+00 -0.00000000000E+00 -0.50000000000E+03  0.50000000000E+03  0.00000000000E+00 0. -1.
  1000024    1    1    2    0    0 -0.67009278893E+02 -0.28271210104E+03  0.36474596190E+03  0.50000000000E+03  0.18039957800E+03 0.  1.
 -1000024    1    1    2    0    0  0.67009278893E+02  0.28271210104E+03 -0.36474596190E+03  0.50000000000E+03  0.18039957800E+03 0. -1.
</event>
<event>
 4   0  0.7366543E-04  0.2236068E+02  0.7957747E-01  0.1516063E+00
      -11   -1    0    0    0    0  0.00000000000E+00  0.00000000000E+00  0.50000000000E+03  0.50000000000E+03  0.00000000000E+00 0.  1.
       11   -1    0    0    0    0 -0.00000000000E+00 -0.00000000000E+00 -0.50000000000E+03  0.50000000000E+03  0.00000000000E+00 0. -1.
  1000024    1    1    2    0    0 -0.37404952251E+03  0.10620592811E+03 -0.25741648704E+03  0.50000000000E+03  0.18039957800E+03 0. -1.
 -1000024    1    1    2    0    0  0.37404952251E+03 -0.10620592811E+03  0.25741648704E+03  0.50000000000E+03  0.18039957800E+03 0.  1.
</event>
<event>
 4   0  0.1092222E-03  0.2236068E+02  0.7957747E-01  0.1516063E+00
      -11   -1    0    0    0    0  0.00000000000E+00  0.00000000000E+00  0.50000000000E+03  0.50000000000E+03  0.00000000000E+00 0.  1.
       11   -1    0    0    0    0 -0.00000000000E+00 -0.00000000000E+00 -0.50000000000E+03  0.50000000000E+03  0.00000000000E+00 0. -1.
  1000024    1    1    2    0    0  0.34401493653E+03  0.31119123990E+03  0.47641661513E+02  0.50000000000E+03  0.18039957800E+03 0. -1.
 -1000024    1    1    2    0    0 -0.34401493653E+03 -0.31119123990E+03 -0.47641661513E+02  0.50000000000E+03  0.18039957800E+03 0.  1.
</event>
<event>
 4   0  0.7366543E-04  0.2236068E+02  0.7957747E-01  0.1516063E+00
      -11   -1    0    0    0    0  0.00000000000E+00  0.00000000000E+00  0.50000000000E+03  0.50000000000E+03  0.00000000000E+00 0.  1.
       11   -1    0    0    0    0 -0.00000000000E+00 -0.00000000000E+00 -0.50000000000E+03  0.50000000000E+03  0.00000000000E+00 0. -1.
  1000024    1    1    2    0    0  0.11747695026E+03  0.39574831708E+03  0.21688344321E+03  0.50000000000E+03  0.18039957800E+03 0. -1.
 -1000024    1    1    2    0    0 -0.11747695026E+03 -0.39574831708E+03 -0.21688344321E+03  0.50000000000E+03  0.18039957800E+03 0.  1.
</event>
<event>
 4   0  0.1092222E-03  0.2236068E+02  0.7957747E-01  0.1516063E+00
      -11   -1    0    0    0    0  0.00000000000E+00  0.00000000000E+00  0.50000000000E+03  0.50000000000E+03  0.00000000000E+00 0.  1.
       11   -1    0    0    0    0 -0.00000000000E+00 -0.00000000000E+00 -0.50000000000E+03  0.50000000000E+03  0.00000000000E+00 0. -1.
  1000024    1    1    2    0    0 -0.25623287397E+03 -0.17102845326E+03  0.35007138519E+03  0.50000000000E+03  0.18039957800E+03 0. -1.
 -1000024    1    1    2    0    0  0.25623287397E+03  0.17102845326E+03 -0.35007138519E+03  0.50000000000E+03  0.18039957800E+03 0.  1.
</event>
<event>
 4   0  0.1092222E-03  0.2236068E+02  0.7957747E-01  0.1516063E+00
      -11   -1    0    0    0    0  0.00000000000E+00  0.00000000000E+00  0.50000000000E+03  0.50000000000E+03  0.00000000000E+00 0.  1.
       11   -1    0    0    0    0 -0.00000000000E+00 -0.00000000000E+00 -0.50000000000E+03  0.50000000000E+03  0.00000000000E+00 0. -1.
  1000024    1    1    2    0    0 -0.42616923753E+03  0.16039607599E+03  0.10054288659E+03  0.50000000000E+03  0.18039957800E+03 0. -1.
 -1000024    1    1    2    0    0  0.42616923753E+03 -0.16039607599E+03 -0.10054288659E+03  0.50000000000E+03  0.18039957800E+03 0.  1.
</event>
<event>
 4   0  0.1092222E-03  0.2236068E+02  0.7957747E-01  0.1516063E+00
      -11   -1    0    0    0    0  0.00000000000E+00  0.00000000000E+00  0.50000000000E+03  0.50000000000E+03  0.00000000000E+00 0.  1.
       11   -1    0    0    0    0 -0.00000000000E+00 -0.00000000000E+00 -0.50000000000E+03  0.50000000000E+03  0.00000000000E+00 0. -1.
  1000024    1    1    2    0    0 -0.10994511370E+03  0.30314300472E+03  0.33685662071E+03  0.50000000000E+03  0.18039957800E+03 0.  1.
 -1000024    1    1    2    0    0  0.10994511370E+03 -0.30314300472E+03 -0.33685662071E+03  0.50000000000E+03  0.18039957800E+03 0. -1.
</event>
<event>
 4   0  0.1092222E-03  0.2236068E+02  0.7957747E-01  0.1516063E+00
      -11   -1    0    0    0    0  0.00000000000E+00  0.00000000000E+00  0.50000000000E+03  0.50000000000E+03  0.00000000000E+00 0.  1.
       11   -1    0    0    0    0 -0.00000000000E+00 -0.00000000000E+00 -0.50000000000E+03  0.50000000000E+03  0.00000000000E+00 0. -1.
  1000024    1    1    2    0    0 -0.54422515441E+02 -0.50220074009E+02  0.46040430736E+03  0.50000000000E+03  0.18039957800E+03 0.  1.
 -1000024    1    1    2    0    0  0.54422515441E+02  0.50220074009E+02 -0.46040430736E+03  0.50000000000E+03  0.18039957800E+03 0. -1.
</event>
<event>
 4   0  0.1092222E-03  0.2236068E+02  0.7957747E-01  0.1516063E+00
      -11   -1    0    0    0    0  0.00000000000E+00  0.00000000000E+00  0.50000000000E+03  0.50000000000E+03  0.00000000000E+00 0.  1.
       11   -1    0    0    0    0 -0.00000000000E+00 -0.00000000000E+00 -0.50000000000E+03  0.50000000000E+03  0.00000000000E+00 0. -1.
  1000024    1    1    2    0    0  0.13321868233E+03 -0.40329298639E+03  0.19251893950E+03  0.50000000000E+03  0.18039957800E+03 0.  1.
 -1000024    1    1    2    0    0 -0.13321868233E+03  0.40329298639E+03 -0.19251893950E+03  0.50000000000E+03  0.18039957800E+03 0. -1.
</event>
<event>
 4   0  0.6712789E-04  0.2236068E+02  0.7957747E-01  0.1516063E+00
      -11   -1    0    0    0    0  0.00000000000E+00  0.00000000000E+00  0.50000000000E+03  0.50000000000E+03  0.00000000000E+00 0.  1.
       11   -1    0    0    0    0 -0.00000000000E+00 -0.00000000000E+00 -0.50000000000E+03  0.50000000000E+03  0.00000000000E+00 0. -1.
  1000024    1    1    2    0    0  0.41940029751E+03  0.20208391346E+03  0.26860279718E+02  0.50000000000E+03  0.18039957800E+03 0. -1.
 -1000024    1    1    2    0    0 -0.41940029751E+03 -0.20208391346E+03 -0.26860279718E+02  0.50000000000E+03  0.18039957800E+03 0.  1.
</event>
<event>
 4   0  0.1092222E-03  0.2236068E+02  0.7957747E-01  0.1516063E+00
      -11   -1    0    0    0    0  0.00000000000E+00  0.00000000000E+00  0.50000000000E+03  0.50000000000E+03  0.00000000000E+00 0.  1.
       11   -1    0    0    0    0 -0.00000000000E+00 -0.00000000000E+00 -0.50000000000E+03  0.50000000000E+03  0.00000000000E+00 0. -1.
  1000024    1    1    2    0    0 -0.21013211568E+03  0.93840153455E+01  0.41618797012E+03  0.50000000000E+03  0.18039957800E+03 0. -1.
 -1000024    1    1    2    0    0  0.21013211568E+03 -0.93840153455E+01 -0.41618797012E+03  0.50000000000E+03  0.18039957800E+03 0. -1.
</event>
<event>
 4   0  0.1092222E-03  0.2236068E+02  0.7957747E-01  0.1516063E+00
      -11   -1    0    0    0    0  0.00000000000E+00  0.00000000000E+00  0.50000000000E+03  0.50000000000E+03  0.00000000000E+00 0.  1.
       11   -1    0    0    0    0 -0.00000000000E+00 -0.00000000000E+00 -0.50000000000E+03  0.50000000000E+03  0.00000000000E+00 0. -1.
  1000024    1    1    2    0    0  0.38656436240E+03 -0.17651060242E+03  0.19201039871E+03  0.50000000000E+03  0.18039957800E+03 0. -1.
 -1000024    1    1    2    0    0 -0.38656436240E+03  0.17651060242E+03 -0.19201039871E+03  0.50000000000E+03  0.18039957800E+03 0.  1.
</event>
<event>
 4   0  0.1092222E-03  0.2236068E+02  0.7957747E-01  0.1516063E+00
      -11   -1    0    0    0    0  0.00000000000E+00  0.00000000000E+00  0.50000000000E+03  0.50000000000E+03  0.00000000000E+00 0.  1.
       11   -1    0    0    0    0 -0.00000000000E+00 -0.00000000000E+00 -0.50000000000E+03  0.50000000000E+03  0.00000000000E+00 0. -1.
  1000024    1    1    2    0    0 -0.21437931483E+03 -0.21299254879E+02  0.41357447137E+03  0.50000000000E+03  0.18039957800E+03 0. -1.
 -1000024    1    1    2    0    0  0.21437931483E+03  0.21299254879E+02 -0.41357447137E+03  0.50000000000E+03  0.18039957800E+03 0.  1.
</event>
<event>
 4   0  0.7366543E-04  0.2236068E+02  0.7957747E-01  0.1516063E+00
      -11   -1    0    0    0    0  0.00000000000E+00  0.00000000000E+00  0.50000000000E+03  0.50000000000E+03  0.00000000000E+00 0.  1.
       11   -1    0    0    0    0 -0.00000000000E+00 -0.00000000000E+00 -0.50000000000E+03  0.50000000000E+03  0.00000000000E+00 0. -1.
  1000024    1    1    2    0    0 -0.14490900724E+03 -0.44311369443E+03  0.10374279911E+02  0.50000000000E+03  0.18039957800E+03 0.  1.
 -1000024    1    1    2    0    0  0.14490900724E+03  0.44311369443E+03 -0.10374279911E+02  0.50000000000E+03  0.18039957800E+03 0. -1.
</event>
<event>
 4   0  0.6712789E-04  0.2236068E+02  0.7957747E-01  0.1516063E+00
      -11   -1    0    0    0    0  0.00000000000E+00  0.00000000000E+00  0.50000000000E+03  0.50000000000E+03  0.00000000000E+00 0.  1.
       11   -1    0    0    0    0 -0.00000000000E+00 -0.00000000000E+00 -0.50000000000E+03  0.50000000000E+03  0.00000000000E+00 0. -1.
  1000024    1    1    2    0    0  0.11249130080E+02  0.14269425644E+03  0.44381054348E+03  0.50000000000E+03  0.18039957800E+03 0.  1.
 -1000024    1    1    2    0    0 -0.11249130080E+02 -0.14269425644E+03 -0.44381054348E+03  0.50000000000E+03  0.18039957800E+03 0.  1.
</event>
<event>
 4   0  0.6712789E-04  0.2236068E+02  0.7957747E-01  0.1516063E+00
      -11   -1    0    0    0    0  0.00000000000E+00  0.00000000000E+00  0.50000000000E+03  0.50000000000E+03  0.00000000000E+00 0.  1.
       11   -1    0    0    0    0 -0.00000000000E+00 -0.00000000000E+00 -0.50000000000E+03  0.50000000000E+03  0.00000000000E+00 0. -1.
  1000024    1    1    2    0    0  0.52238536589E+02  0.32124696207E+03  0.33395735793E+03  0.50000000000E+03  0.18039957800E+03 0.  1.
 -1000024    1    1    2    0    0 -0.52238536589E+02 -0.32124696207E+03 -0.33395735793E+03  0.50000000000E+03  0.18039957800E+03 0. -1.
</event>
<event>
 4   0  0.1092222E-03  0.2236068E+02  0.7957747E-01  0.1516063E+00
      -11   -1    0    0    0    0  0.00000000000E+00  0.00000000000E+00  0.50000000000E+03  0.50000000000E+03  0.00000000000E+00 0.  1.
       11   -1    0    0    0    0 -0.00000000000E+00 -0.00000000000E+00 -0.50000000000E+03  0.50000000000E+03  0.00000000000E+00 0. -1.
  1000024    1    1    2    0    0 -0.15580083269E+03  0.39986557176E+03  0.18245442530E+03  0.50000000000E+03  0.18039957800E+03 0.  1.
 -1000024    1    1    2    0    0  0.15580083269E+03 -0.39986557176E+03 -0.18245442530E+03  0.50000000000E+03  0.18039957800E+03 0. -1.
</event>
<event>
 4   0  0.1092222E-03  0.2236068E+02  0.7957747E-01  0.1516063E+00
      -11   -1    0    0    0    0  0.00000000000E+00  0.00000000000E+00  0.50000000000E+03  0.50000000000E+03  0.00000000000E+00 0.  1.
       11   -1    0    0    0    0 -0.00000000000E+00 -0.00000000000E+00 -0.50000000000E+03  0.50000000000E+03  0.00000000000E+00 0. -1.
  1000024    1    1    2    0    0  0.43783968089E+03  0.10036095440E+03  0.12522014585E+03  0.50000000000E+03  0.18039957800E+03 0. -1.
 -1000024    1    1    2    0    0 -0.43783968089E+03 -0.10036095440E+03 -0.12522014585E+03  0.50000000000E+03  0.18039957800E+03 0.  1.
</event>
<event>
 4   0  0.7366543E-04  0.2236068E+02  0.7957747E-01  0.1516063E+00
      -11   -1    0    0    0    0  0.00000000000E+00  0.00000000000E+00  0.50000000000E+03  0.50000000000E+03  0.00000000000E+00 0.  1.
       11   -1    0    0    0    0 -0.00000000000E+00 -0.00000000000E+00 -0.50000000000E+03  0.50000000000E+03  0.00000000000E+00 0. -1.
  1000024    1    1    2    0    0  0.20928895139E+03  0.95397094480E+02  0.40565197084E+03  0.50000000000E+03  0.18039957800E+03 0. -1.
 -1000024    1    1    2    0    0 -0.20928895139E+03 -0.95397094480E+02 -0.40565197084E+03  0.50000000000E+03  0.18039957800E+03 0. -1.
</event>
<event>
 4   0  0.1092222E-03  0.2236068E+02  0.7957747E-01  0.1516063E+00
      -11   -1    0    0    0    0  0.00000000000E+00  0.00000000000E+00  0.50000000000E+03  0.50000000000E+03  0.00000000000E+00 0.  1.
       11   -1    0    0    0    0 -0.00000000000E+00 -0.00000000000E+00 -0.50000000000E+03  0.50000000000E+03  0.00000000000E+00 0. -1.
  1000024    1    1    2    0    0  0.31082610320E+03  0.19432917069E+03  0.28823479881E+03  0.50000000000E+03  0.18039957800E+03 0.  1.
 -1000024    1    1    2    0    0 -0.31082610320E+03 -0.19432917069E+03 -0.28823479881E+03  0.50000000000E+03  0.18039957800E+03 0. -1.
</event>
<event>
 4   0  0.6712789E-04  0.2236068E+02  0.7957747E-01  0.1516063E+00
      -11   -1    0    0    0    0  0.00000000000E+00  0.00000000000E+00  0.50000000000E+03  0.50000000000E+03  0.00000000000E+00 0.  1.
       11   -1    0    0    0    0 -0.00000000000E+00 -0.00000000000E+00 -0.50000000000E+03  0.50000000000E+03  0.00000000000E+00 0. -1.
  1000024    1    1    2    0    0 -0.19000568582E+02 -0.23170050209E+03  0.40423983968E+03  0.50000000000E+03  0.18039957800E+03 0. -1.
 -1000024    1    1    2    0    0  0.19000568582E+02  0.23170050209E+03 -0.40423983968E+03  0.50000000000E+03  0.18039957800E+03 0.  1.
</event>
<event>
 4   0  0.7366543E-04  0.2236068E+02  0.7957747E-01  0.1516063E+00
      -11   -1    0    0    0    0  0.00000000000E+00  0.00000000000E+00  0.50000000000E+03  0.50000000000E+03  0.00000000000E+00 0.  1.
       11   -1    0    0    0    0 -0.00000000000E+00 -0.00000000000E+00 -0.50000000000E+03  0.50000000000E+03  0.00000000000E+00 0. -1.
  1000024    1    1    2    0    0 -0.44841536969E+03  0.11566233795E+03  0.54789342606E+02  0.50000000000E+03  0.18039957800E+03 0. -1.
 -1000024    1    1    2    0    0  0.44841536969E+03 -0.11566233795E+03 -0.54789342606E+02  0.50000000000E+03  0.18039957800E+03 0.  1.
</event>
<event>
 4   0  0.7366543E-04  0.2236068E+02  0.7957747E-01  0.1516063E+00
      -11   -1    0    0    0    0  0.00000000000E+00  0.00000000000E+00  0.50000000000E+03  0.50000000000E+03  0.00000000000E+00 0.  1.
       11   -1    0    0    0    0 -0.00000000000E+00 -0.00000000000E+00 -0.50000000000E+03  0.50000000000E+03  0.00000000000E+00 0. -1.
  1000024    1    1    2    0    0  0.21657139186E+03  0.40105463169E+03  0.98529218452E+02  0.50000000000E+03  0.18039957800E+03 0. -1.
 -1000024    1    1    2    0    0 -0.21657139186E+03 -0.40105463169E+03 -0.98529218452E+02  0.50000000000E+03  0.18039957800E+03 0.  1.
</event>
<event>
 4   0  0.7366543E-04  0.2236068E+02  0.7957747E-01  0.1516063E+00
      -11   -1    0    0    0    0  0.00000000000E+00  0.00000000000E+00  0.50000000000E+03  0.50000000000E+03  0.00000000000E+00 0.  1.
       11   -1    0    0    0    0 -0.00000000000E+00 -0.00000000000E+00 -0.50000000000E+03  0.50000000000E+03  0.00000000000E+00 0. -1.
  1000024    1    1    2    0    0  0.11649949142E+03  0.33935520228E+03  0.29786222896E+03  0.50000000000E+03  0.18039957800E+03 0. -1.
 -1000024    1    1    2    0    0 -0.11649949142E+03 -0.33935520228E+03 -0.29786222896E+03  0.50000000000E+03  0.18039957800E+03 0.  1.
</event>
<event>
 4   0  0.7366543E-04  0.2236068E+02  0.7957747E-01  0.1516063E+00
      -11   -1    0    0    0    0  0.00000000000E+00  0.00000000000E+00  0.50000000000E+03  0.50000000000E+03  0.00000000000E+00 0.  1.
       11   -1    0    0    0    0 -0.00000000000E+00 -0.00000000000E+00 -0.50000000000E+03  0.50000000000E+03  0.00000000000E+00 0. -1.
  1000024    1    1    2    0    0  0.20717390669E+03 -0.28521012375E+03  0.30527061757E+03  0.50000000000E+03  0.18039957800E+03 0. -1.
 -1000024    1    1    2    0    0 -0.20717390669E+03  0.28521012375E+03 -0.30527061757E+03  0.50000000000E+03  0.18039957800E+03 0.  1.
</event>
<event>
 4   0  0.1092222E-03  0.2236068E+02  0.7957747E-01  0.1516063E+00
      -11   -1    0    0    0    0  0.00000000000E+00  0.00000000000E+00  0.50000000000E+03  0.50000000000E+03  0.00000000000E+00 0.  1.
       11   -1    0    0    0    0 -0.00000000000E+00 -0.00000000000E+00 -0.50000000000E+03  0.50000000000E+03  0.00000000000E+00 0. -1.
  1000024    1    1    2    0    0 -0.30040675523E+03  0.17583184822E+03  0.31031425172E+03  0.50000000000E+03  0.18039957800E+03 0.  1.
 -1000024    1    1    2    0    0  0.30040675523E+03 -0.17583184822E+03 -0.31031425172E+03  0.50000000000E+03  0.18039957800E+03 0. -1.
</event>
<event>
 4   0  0.1092222E-03  0.2236068E+02  0.7957747E-01  0.1516063E+00
      -11   -1    0    0    0    0  0.00000000000E+00  0.00000000000E+00  0.50000000000E+03  0.50000000000E+03  0.00000000000E+00 0.  1.
       11   -1    0    0    0    0 -0.00000000000E+00 -0.00000000000E+00 -0.50000000000E+03  0.50000000000E+03  0.00000000000E+00 0. -1.
  1000024    1    1    2    0    0  0.42993635493E+02  0.39859040303E+03 -0.23818738459E+03  0.50000000000E+03  0.18039957800E+03 0. -1.
 -1000024    1    1    2    0    0 -0.42993635493E+02 -0.39859040303E+03  0.23818738459E+03  0.50000000000E+03  0.18039957800E+03 0.  1.
</event>
<event>
 4   0  0.1092222E-03  0.2236068E+02  0.7957747E-01  0.1516063E+00
      -11   -1    0    0    0    0  0.00000000000E+00  0.00000000000E+00  0.50000000000E+03  0.50000000000E+03  0.00000000000E+00 0.  1.
       11   -1    0    0    0    0 -0.00000000000E+00 -0.00000000000E+00 -0.50000000000E+03  0.50000000000E+03  0.00000000000E+00 0. -1.
  1000024    1    1    2    0    0  0.85470641953E+02 -0.26667193277E+03  0.37287644320E+03  0.50000000000E+03  0.18039957800E+03 0.  1.
 -1000024    1    1    2    0    0 -0.85470641953E+02  0.26667193277E+03 -0.37287644320E+03  0.50000000000E+03  0.18039957800E+03 0. -1.
</event>
<event>
 4   0  0.7366543E-04  0.2236068E+02  0.7957747E-01  0.1516063E+00
      -11   -1    0    0    0    0  0.00000000000E+00  0.00000000000E+00  0.50000000000E+03  0.50000000000E+03  0.00000000000E+00 0.  1.
       11   -1    0    0    0    0 -0.00000000000E+00 -0.00000000000E+00 -0.50000000000E+03  0.50000000000E+03  0.00000000000E+00 0. -1.
  1000024    1    1    2    0    0  0.71893231818E+02 -0.20369018504E+03  0.41327674021E+03  0.50000000000E+03  0.18039957800E+03 0.  1.
 -1000024    1    1    2    0    0 -0.71893231818E+02  0.20369018504E+03 -0.41327674021E+03  0.50000000000E+03  0.18039957800E+03 0. -1.
</event>
<event>
 4   0  0.1092222E-03  0.2236068E+02  0.7957747E-01  0.1516063E+00
      -11   -1    0    0    0    0  0.00000000000E+00  0.00000000000E+00  0.50000000000E+03  0.50000000000E+03  0.00000000000E+00 0.  1.
       11   -1    0    0    0    0 -0.00000000000E+00 -0.00000000000E+00 -0.50000000000E+03  0.50000000000E+03  0.00000000000E+00 0. -1.
  1000024    1    1    2    0    0 -0.33737389448E+03 -0.31772355685E+03 -0.51832316199E+02  0.50000000000E+03  0.18039957800E+03 0.  1.
 -1000024    1    1    2    0    0  0.33737389448E+03  0.31772355685E+03  0.51832316199E+02  0.50000000000E+03  0.18039957800E+03 0. -1.
</event>
<event>
 4   0  0.7366543E-04  0.2236068E+02  0.7957747E-01  0.1516063E+00
      -11   -1    0    0    0    0  0.00000000000E+00  0.00000000000E+00  0.50000000000E+03  0.50000000000E+03  0.00000000000E+00 0.  1.
       11   -1    0    0    0    0 -0.00000000000E+00 -0.00000000000E+00 -0.50000000000E+03  0.50000000000E+03  0.00000000000E+00 0. -1.
  1000024    1    1    2    0    0  0.15344663302E+03 -0.42377761613E+03  0.11967729584E+03  0.50000000000E+03  0.18039957800E+03 0.  1.
 -1000024    1    1    2    0    0 -0.15344663302E+03  0.42377761613E+03 -0.11967729584E+03  0.50000000000E+03  0.18039957800E+03 0. -1.
</event>
<event>
 4   0  0.7366543E-04  0.2236068E+02  0.7957747E-01  0.1516063E+00
      -11   -1    0    0    0    0  0.00000000000E+00  0.00000000000E+00  0.50000000000E+03  0.50000000000E+03  0.00000000000E+00 0.  1.
       11   -1    0    0    0    0 -0.00000000000E+00 -0.00000000000E+00 -0.50000000000E+03  0.50000000000E+03  0.00000000000E+00 0. -1.
  1000024    1    1    2    0    0  0.41014892400E+03 -0.18222267522E+03 -0.12660469594E+03  0.50000000000E+03  0.18039957800E+03 0.  1.
 -1000024    1    1    2    0    0 -0.41014892400E+03  0.18222267522E+03  0.12660469594E+03  0.50000000000E+03  0.18039957800E+03 0. -1.
</event>
<event>
 4   0  0.7366543E-04  0.2236068E+02  0.7957747E-01  0.1516063E+00
      -11   -1    0    0    0    0  0.00000000000E+00  0.00000000000E+00  0.50000000000E+03  0.50000000000E+03  0.00000000000E+00 0.  1.
       11   -1    0    0    0    0 -0.00000000000E+00 -0.00000000000E+00 -0.50000000000E+03  0.50000000000E+03  0.00000000000E+00 0. -1.
  1000024    1    1    2    0    0 -0.41903250779E+03  0.19442817634E+03  0.63760755353E+02  0.50000000000E+03  0.18039957800E+03 0.  1.
 -1000024    1    1    2    0    0  0.41903250779E+03 -0.19442817634E+03 -0.63760755353E+02  0.50000000000E+03  0.18039957800E+03 0. -1.
</event>
<event>
 4   0  0.7366543E-04  0.2236068E+02  0.7957747E-01  0.1516063E+00
      -11   -1    0    0    0    0  0.00000000000E+00  0.00000000000E+00  0.50000000000E+03  0.50000000000E+03  0.00000000000E+00 0.  1.
       11   -1    0    0    0    0 -0.00000000000E+00 -0.00000000000E+00 -0.50000000000E+03  0.50000000000E+03  0.00000000000E+00 0. -1.
  1000024    1    1    2    0    0 -0.22752990487E+03  0.30745525462E+03  0.26675344619E+03  0.50000000000E+03  0.18039957800E+03 0.  1.
 -1000024    1    1    2    0    0  0.22752990487E+03 -0.30745525462E+03 -0.26675344619E+03  0.50000000000E+03  0.18039957800E+03 0. -1.
</event>
<event>
 4   0  0.1092222E-03  0.2236068E+02  0.7957747E-01  0.1516063E+00
      -11   -1    0    0    0    0  0.00000000000E+00  0.00000000000E+00  0.50000000000E+03  0.50000000000E+03  0.00000000000E+00 0.  1.
       11   -1    0    0    0    0 -0.00000000000E+00 -0.00000000000E+00 -0.50000000000E+03  0.50000000000E+03  0.00000000000E+00 0. -1.
  1000024    1    1    2    0    0 -0.22117821190E+03  0.38198924623E+03  0.15040081981E+03  0.50000000000E+03  0.18039957800E+03 0. -1.
 -1000024    1    1    2    0    0  0.22117821190E+03 -0.38198924623E+03 -0.15040081981E+03  0.50000000000E+03  0.18039957800E+03 0.  1.
</event>
<event>
 4   0  0.6712789E-04  0.2236068E+02  0.7957747E-01  0.1516063E+00
      -11   -1    0    0    0    0  0.00000000000E+00  0.00000000000E+00  0.50000000000E+03  0.50000000000E+03  0.00000000000E+00 0.  1.
       11   -1    0    0    0    0 -0.00000000000E+00 -0.00000000000E+00 -0.50000000000E+03  0.50000000000E+03  0.00000000000E+00 0. -1.
  1000024    1    1    2    0    0  0.20282080640E+03 -0.21283962266E+03  0.36196547871E+03  0.50000000000E+03  0.18039957800E+03 0.  1.
 -1000024    1    1    2    0    0 -0.20282080640E+03  0.21283962266E+03 -0.36196547871E+03  0.50000000000E+03  0.18039957800E+03 0.  1.
</event>
<event>
 4   0  0.1092222E-03  0.2236068E+02  0.7957747E-01  0.1516063E+00
      -11   -1    0    0    0    0  0.00000000000E+00  0.00000000000E+00  0.50000000000E+03  0.50000000000E+03  0.00000000000E+00 0.  1.
       11   -1    0    0    0    0 -0.00000000000E+00 -0.00000000000E+00 -0.50000000000E+03  0.50000000000E+03  0.00000000000E+00 0. -1.
  1000024    1    1    2    0    0  0.26953452586E+03 -0.37598635622E+03 -0.58663374974E+02  0.50000000000E+03  0.18039957800E+03 0.  1.
 -1000024    1    1    2    0    0 -0.26953452586E+03  0.37598635622E+03  0.58663374974E+02  0.50000000000E+03  0.18039957800E+03 0. -1.
</event>
<event>
 4   0  0.6712789E-04  0.2236068E+02  0.7957747E-01  0.1516063E+00
      -11   -1    0    0    0    0  0.00000000000E+00  0.00000000000E+00  0.50000000000E+03  0.50000000000E+03  0.00000000000E+00 0.  1.
       11   -1    0    0    0    0 -0.00000000000E+00 -0.00000000000E+00 -0.50000000000E+03  0.50000000000E+03  0.00000000000E+00 0. -1.
  1000024    1    1    2    0    0 -0.42905015769E+03 -0.54046689869E+02  0.17450189040E+03  0.50000000000E+03  0.18039957800E+03 0.  1.
 -1000024    1    1    2    0    0  0.42905015769E+03  0.54046689869E+02 -0.17450189040E+03  0.50000000000E+03  0.18039957800E+03 0. -1.
</event>
<event>
 4   0  0.1092222E-03  0.2236068E+02  0.7957747E-01  0.1516063E+00
      -11   -1    0    0    0    0  0.00000000000E+00  0.00000000000E+00  0.50000000000E+03  0.50000000000E+03  0.00000000000E+00 0.  1.
       11   -1    0    0    0    0 -0.00000000000E+00 -0.00000000000E+00 -0.50000000000E+03  0.50000000000E+03  0.00000000000E+00 0. -1.
  1000024    1    1    2    0    0 -0.44243340003E+03 -0.10353303203E+03 -0.10483124567E+03  0.50000000000E+03  0.18039957800E+03 0.  1.
 -1000024    1    1    2    0    0  0.44243340003E+03  0.10353303203E+03  0.10483124567E+03  0.50000000000E+03  0.18039957800E+03 0. -1.
</event>
<event>
 4   0  0.7366543E-04  0.2236068E+02  0.7957747E-01  0.1516063E+00
      -11   -1    0    0    0    0  0.00000000000E+00  0.00000000000E+00  0.50000000000E+03  0.50000000000E+03  0.00000000000E+00 0.  1.
       11   -1    0    0    0    0 -0.00000000000E+00 -0.00000000000E+00 -0.50000000000E+03  0.50000000000E+03  0.00000000000E+00 0. -1.
  1000024    1    1    2    0    0 -0.21383402370E+03  0.41044699030E+03 -0.57133796609E+02  0.50000000000E+03  0.18039957800E+03 0.  1.
 -1000024    1    1    2    0    0  0.21383402370E+03 -0.41044699030E+03  0.57133796609E+02  0.50000000000E+03  0.18039957800E+03 0. -1.
</event>
<event>
 4   0  0.1092222E-03  0.2236068E+02  0.7957747E-01  0.1516063E+00
      -11   -1    0    0    0    0  0.00000000000E+00  0.00000000000E+00  0.50000000000E+03  0.50000000000E+03  0.00000000000E+00 0.  1.
       11   -1    0    0    0    0 -0.00000000000E+00 -0.00000000000E+00 -0.50000000000E+03  0.50000000000E+03  0.00000000000E+00 0. -1.
  1000024    1    1    2    0    0  0.36273423223E+03  0.28888381018E+03  0.49254575892E+02  0.50000000000E+03  0.18039957800E+03 0. -1.
 -1000024    1    1    2    0    0 -0.36273423223E+03 -0.28888381018E+03 -0.49254575892E+02  0.50000000000E+03  0.18039957800E+03 0.  1.
</event>
<event>
 4   0  0.1092222E-03  0.2236068E+02  0.7957747E-01  0.1516063E+00
      -11   -1    0    0    0    0  0.00000000000E+00  0.00000000000E+00  0.50000000000E+03  0.50000000000E+03  0.00000000000E+00 0.  1.
       11   -1    0    0    0    0 -0.00000000000E+00 -0.00000000000E+00 -0.50000000000E+03  0.50000000000E+03  0.00000000000E+00 0. -1.
  1000024    1    1    2    0    0  0.34488160628E+03 -0.46340899307E+01  0.31383306887E+03  0.50000000000E+03  0.18039957800E+03 0.  1.
 -1000024    1    1    2    0    0 -0.34488160628E+03  0.46340899307E+01 -0.31383306887E+03  0.50000000000E+03  0.18039957800E+03 0. -1.
</event>
<event>
 4   0  0.7366543E-04  0.2236068E+02  0.7957747E-01  0.1516063E+00
      -11   -1    0    0    0    0  0.00000000000E+00  0.00000000000E+00  0.50000000000E+03  0.50000000000E+03  0.00000000000E+00 0.  1.
       11   -1    0    0    0    0 -0.00000000000E+00 -0.00000000000E+00 -0.50000000000E+03  0.50000000000E+03  0.00000000000E+00 0. -1.
  1000024    1    1    2    0    0  0.11203765639E+03  0.44318174783E+03  0.92160155164E+02  0.50000000000E+03  0.18039957800E+03 0.  1.
 -1000024    1    1    2    0    0 -0.11203765639E+03 -0.44318174783E+03 -0.92160155164E+02  0.50000000000E+03  0.18039957800E+03 0. -1.
</event>
<event>
 4   0  0.1092222E-03  0.2236068E+02  0.7957747E-01  0.1516063E+00
      -11   -1    0    0    0    0  0.00000000000E+00  0.00000000000E+00  0.50000000000E+03  0.50000000000E+03  0.00000000000E+00 0.  1.
       11   -1    0    0    0    0 -0.00000000000E+00 -0.00000000000E+00 -0.50000000000E+03  0.50000000000E+03  0.00000000000E+00 0. -1.
  1000024    1    1    2    0    0 -0.34529722272E+03  0.11806897696E+03  0.29031971501E+03  0.50000000000E+03  0.18039957800E+03 0.  1.
 -1000024    1    1    2    0    0  0.34529722272E+03 -0.11806897696E+03 -0.29031971501E+03  0.50000000000E+03  0.18039957800E+03 0. -1.
</event>
<event>
 4   0  0.7366543E-04  0.2236068E+02  0.7957747E-01  0.1516063E+00
      -11   -1    0    0    0    0  0.00000000000E+00  0.00000000000E+00  0.50000000000E+03  0.50000000000E+03  0.00000000000E+00 0.  1.
       11   -1    0    0    0    0 -0.00000000000E+00 -0.00000000000E+00 -0.50000000000E+03  0.50000000000E+03  0.00000000000E+00 0. -1.
  1000024    1    1    2    0    0  0.93180212872E+02  0.11123321265E+03  0.44317108727E+03  0.50000000000E+03  0.18039957800E+03 0. -1.
 -1000024    1    1    2    0    0 -0.93180212872E+02 -0.11123321265E+03 -0.44317108727E+03  0.50000000000E+03  0.18039957800E+03 0.  1.
</event>
<event>
 4   0  0.7366543E-04  0.2236068E+02  0.7957747E-01  0.1516063E+00
      -11   -1    0    0    0    0  0.00000000000E+00  0.00000000000E+00  0.50000000000E+03  0.50000000000E+03  0.00000000000E+00 0.  1.
       11   -1    0    0    0    0 -0.00000000000E+00 -0.00000000000E+00 -0.50000000000E+03  0.50000000000E+03  0.00000000000E+00 0. -1.
  1000024    1    1    2    0    0 -0.45152097471E+03 -0.59683287131E+02  0.10011347008E+03  0.50000000000E+03  0.18039957800E+03 0. -1.
 -1000024    1    1    2    0    0  0.45152097471E+03  0.59683287131E+02 -0.10011347008E+03  0.50000000000E+03  0.18039957800E+03 0.  1.
</event>
<event>
 4   0  0.7366543E-04  0.2236068E+02  0.7957747E-01  0.1516063E+00
      -11   -1    0    0    0    0  0.00000000000E+00  0.00000000000E+00  0.50000000000E+03  0.50000000000E+03  0.00000000000E+00 0.  1.
       11   -1    0    0    0    0 -0.00000000000E+00 -0.00000000000E+00 -0.50000000000E+03  0.50000000000E+03  0.00000000000E+00 0. -1.
  1000024    1    1    2    0    0  0.46276686220E+03  0.75612626277E+01  0.56970613641E+02  0.50000000000E+03  0.18039957800E+03 0.  1.
 -1000024    1    1    2    0    0 -0.46276686220E+03 -0.75612626277E+01 -0.56970613641E+02  0.50000000000E+03  0.18039957800E+03 0. -1.
</event>
<event>
 4   0  0.1092222E-03  0.2236068E+02  0.7957747E-01  0.1516063E+00
      -11   -1    0    0    0    0  0.00000000000E+00  0.00000000000E+00  0.50000000000E+03  0.50000000000E+03  0.00000000000E+00 0.  1.
       11   -1    0    0    0    0 -0.00000000000E+00 -0.00000000000E+00 -0.50000000000E+03  0.50000000000E+03  0.00000000000E+00 0. -1.
  1000024    1    1    2    0    0  0.44847892798E+03  0.63013446587E+02  0.11113932233E+03  0.50000000000E+03  0.18039957800E+03 0. -1.
 -1000024    1    1    2    0    0 -0.44847892798E+03 -0.63013446587E+02 -0.11113932233E+03  0.50000000000E+03  0.18039957800E+03 0.  1.
</event>
<event>
 4   0  0.7366543E-04  0.2236068E+02  0.7957747E-01  0.1516063E+00
      -11   -1    0    0    0    0  0.00000000000E+00  0.00000000000E+00  0.50000000000E+03  0.50000000000E+03  0.00000000000E+00 0.  1.
       11   -1    0    0    0    0 -0.00000000000E+00 -0.00000000000E+00 -0.50000000000E+03  0.50000000000E+03  0.00000000000E+00 0. -1.
  1000024    1    1    2    0    0 -0.80064165059E+02  0.42266438456E+03  0.18000149932E+03  0.50000000000E+03  0.18039957800E+03 0.  1.
 -1000024    1    1    2    0    0  0.80064165059E+02 -0.42266438456E+03 -0.18000149932E+03  0.50000000000E+03  0.18039957800E+03 0. -1.
</event>
<event>
 4   0  0.6712789E-04  0.2236068E+02  0.7957747E-01  0.1516063E+00
      -11   -1    0    0    0    0  0.00000000000E+00  0.00000000000E+00  0.50000000000E+03  0.50000000000E+03  0.00000000000E+00 0.  1.
       11   -1    0    0    0    0 -0.00000000000E+00 -0.00000000000E+00 -0.50000000000E+03  0.50000000000E+03  0.00000000000E+00 0. -1.
  1000024    1    1    2    0    0 -0.12188760159E+03  0.44506839323E+03  0.67182811693E+02  0.50000000000E+03  0.18039957800E+03 0. -1.
 -1000024    1    1    2    0    0  0.12188760159E+03 -0.44506839323E+03 -0.67182811693E+02  0.50000000000E+03  0.18039957800E+03 0.  1.
</event>
<event>
 4   0  0.7366543E-04  0.2236068E+02  0.7957747E-01  0.1516063E+00
      -11   -1    0    0    0    0  0.00000000000E+00  0.00000000000E+00  0.50000000000E+03  0.50000000000E+03  0.00000000000E+00 0.  1.
       11   -1    0    0    0    0 -0.00000000000E+00 -0.00000000000E+00 -0.50000000000E+03  0.50000000000E+03  0.00000000000E+00 0. -1.
  1000024    1    1    2    0    0  0.45460269772E+03 -0.10205553838E+03 -0.19417687020E+02  0.50000000000E+03  0.18039957800E+03 0. -1.
 -1000024    1    1    2    0    0 -0.45460269772E+03  0.10205553838E+03  0.19417687020E+02  0.50000000000E+03  0.18039957800E+03 0.  1.
</event>
<event>
 4   0  0.1092222E-03  0.2236068E+02  0.7957747E-01  0.1516063E+00
      -11   -1    0    0    0    0  0.00000000000E+00  0.00000000000E+00  0.50000000000E+03  0.50000000000E+03  0.00000000000E+00 0.  1.
       11   -1    0    0    0    0 -0.00000000000E+00 -0.00000000000E+00 -0.50000000000E+03  0.50000000000E+03  0.00000000000E+00 0. -1.
  1000024    1    1    2    0    0 -0.14637283830E+03  0.21626107332E+03  0.38634457759E+03  0.50000000000E+03  0.18039957800E+03 0.  1.
 -1000024    1    1    2    0    0  0.14637283830E+03 -0.21626107332E+03 -0.38634457759E+03  0.50000000000E+03  0.18039957800E+03 0. -1.
</event>
<event>
 4   0  0.7366543E-04  0.2236068E+02  0.7957747E-01  0.1516063E+00
      -11   -1    0    0    0    0  0.00000000000E+00  0.00000000000E+00  0.50000000000E+03  0.50000000000E+03  0.00000000000E+00 0.  1.
       11   -1    0    0    0    0 -0.00000000000E+00 -0.00000000000E+00 -0.50000000000E+03  0.50000000000E+03  0.00000000000E+00 0. -1.
  1000024    1    1    2    0    0 -0.32541092564E+03  0.12486959889E+03  0.30979235789E+03  0.50000000000E+03  0.18039957800E+03 0.  1.
 -1000024    1    1    2    0    0  0.32541092564E+03 -0.12486959889E+03 -0.30979235789E+03  0.50000000000E+03  0.18039957800E+03 0. -1.
</event>
<event>
 4   0  0.1092222E-03  0.2236068E+02  0.7957747E-01  0.1516063E+00
      -11   -1    0    0    0    0  0.00000000000E+00  0.00000000000E+00  0.50000000000E+03  0.50000000000E+03  0.00000000000E+00 0.  1.
       11   -1    0    0    0    0 -0.00000000000E+00 -0.00000000000E+00 -0.50000000000E+03  0.50000000000E+03  0.00000000000E+00 0. -1.
  1000024    1    1    2    0    0  0.44940071422E+02  0.22516805249E+03  0.40587649645E+03  0.50000000000E+03  0.18039957800E+03 0. -1.
 -1000024    1    1    2    0    0 -0.44940071422E+02 -0.22516805249E+03 -0.40587649645E+03  0.50000000000E+03  0.18039957800E+03 0.  1.
</event>
<event>
 4   0  0.7366543E-04  0.2236068E+02  0.7957747E-01  0.1516063E+00
      -11   -1    0    0    0    0  0.00000000000E+00  0.00000000000E+00  0.50000000000E+03  0.50000000000E+03  0.00000000000E+00 0.  1.
       11   -1    0    0    0    0 -0.00000000000E+00 -0.00000000000E+00 -0.50000000000E+03  0.50000000000E+03  0.00000000000E+00 0. -1.
  1000024    1    1    2    0    0 -0.16054604052E+03 -0.21253851244E+02  0.43729765028E+03  0.50000000000E+03  0.18039957800E+03 0. -1.
 -1000024    1    1    2    0    0  0.16054604052E+03  0.21253851244E+02 -0.43729765028E+03  0.50000000000E+03  0.18039957800E+03 0. -1.
</event>
<event>
 4   0  0.1092222E-03  0.2236068E+02  0.7957747E-01  0.1516063E+00
      -11   -1    0    0    0    0  0.00000000000E+00  0.00000000000E+00  0.50000000000E+03  0.50000000000E+03  0.00000000000E+00 0.  1.
       11   -1    0    0    0    0 -0.00000000000E+00 -0.00000000000E+00 -0.50000000000E+03  0.50000000000E+03  0.00000000000E+00 0. -1.
  1000024    1    1    2    0    0 -0.74709928375E+01  0.31621924152E+03  0.34264495884E+03  0.50000000000E+03  0.18039957800E+03 0.  1.
 -1000024    1    1    2    0    0  0.74709928375E+01 -0.31621924152E+03 -0.34264495884E+03  0.50000000000E+03  0.18039957800E+03 0. -1.
</event>
<event>
 4   0  0.1092222E-03  0.2236068E+02  0.7957747E-01  0.1516063E+00
      -11   -1    0    0    0    0  0.00000000000E+00  0.00000000000E+00  0.50000000000E+03  0.50000000000E+03  0.00000000000E+00 0.  1.
       11   -1    0    0    0    0 -0.00000000000E+00 -0.00000000000E+00 -0.50000000000E+03  0.50000000000E+03  0.00000000000E+00 0. -1.
  1000024    1    1    2    0    0 -0.39639711789E+03 -0.24509550936E+03  0.15921949469E+02  0.50000000000E+03  0.18039957800E+03 0.  1.
 -1000024    1    1    2    0    0  0.39639711789E+03  0.24509550936E+03 -0.15921949469E+02  0.50000000000E+03  0.18039957800E+03 0. -1.
</event>
<event>
 4   0  0.7366543E-04  0.2236068E+02  0.7957747E-01  0.1516063E+00
      -11   -1    0    0    0    0  0.00000000000E+00  0.00000000000E+00  0.50000000000E+03  0.50000000000E+03  0.00000000000E+00 0.  1.
       11   -1    0    0    0    0 -0.00000000000E+00 -0.00000000000E+00 -0.50000000000E+03  0.50000000000E+03  0.00000000000E+00 0. -1.
  1000024    1    1    2    0    0  0.38490128256E+03 -0.19192229946E+03  0.18020218066E+03  0.50000000000E+03  0.18039957800E+03 0.  1.
 -1000024    1    1    2    0    0 -0.38490128256E+03  0.19192229946E+03 -0.18020218066E+03  0.50000000000E+03  0.18039957800E+03 0. -1.
</event>
<event>
 4   0  0.1092222E-03  0.2236068E+02  0.7957747E-01  0.1516063E+00
      -11   -1    0    0    0    0  0.00000000000E+00  0.00000000000E+00  0.50000000000E+03  0.50000000000E+03  0.00000000000E+00 0.  1.
       11   -1    0    0    0    0 -0.00000000000E+00 -0.00000000000E+00 -0.50000000000E+03  0.50000000000E+03  0.00000000000E+00 0. -1.
  1000024    1    1    2    0    0  0.40120270565E+03  0.14589187628E+03  0.18763779382E+03  0.50000000000E+03  0.18039957800E+03 0. -1.
 -1000024    1    1    2    0    0 -0.40120270565E+03 -0.14589187628E+03 -0.18763779382E+03  0.50000000000E+03  0.18039957800E+03 0.  1.
</event>
<event>
 4   0  0.6712789E-04  0.2236068E+02  0.7957747E-01  0.1516063E+00
      -11   -1    0    0    0    0  0.00000000000E+00  0.00000000000E+00  0.50000000000E+03  0.50000000000E+03  0.00000000000E+00 0.  1.
       11   -1    0    0    0    0 -0.00000000000E+00 -0.00000000000E+00 -0.50000000000E+03  0.50000000000E+03  0.00000000000E+00 0. -1.
  1000024    1    1    2    0    0  0.37540899686E+03 -0.13409167362E+03  0.24195764176E+03  0.50000000000E+03  0.18039957800E+03 0. -1.
 -1000024    1    1    2    0    0 -0.37540899686E+03  0.13409167362E+03 -0.24195764176E+03  0.50000000000E+03  0.18039957800E+03 0.  1.
</event>
<event>
 4   0  0.1092222E-03  0.2236068E+02  0.7957747E-01  0.1516063E+00
      -11   -1    0    0    0    0  0.00000000000E+00  0.00000000000E+00  0.50000000000E+03  0.50000000000E+03  0.00000000000E+00 0.  1.
       11   -1    0    0    0    0 -0.00000000000E+00 -0.00000000000E+00 -0.50000000000E+03  0.50000000000E+03  0.00000000000E+00 0. -1.
  1000024    1    1    2    0    0  0.33267485878E+03 -0.31889138229E+03  0.71356267395E+02  0.50000000000E+03  0.18039957800E+03 0.  1.
 -1000024    1    1    2    0    0 -0.33267485878E+03  0.31889138229E+03 -0.71356267395E+02  0.50000000000E+03  0.18039957800E+03 0. -1.
</event>
<event>
 4   0  0.7366543E-04  0.2236068E+02  0.7957747E-01  0.1516063E+00
      -11   -1    0    0    0    0  0.00000000000E+00  0.00000000000E+00  0.50000000000E+03  0.50000000000E+03  0.00000000000E+00 0.  1.
       11   -1    0    0    0    0 -0.00000000000E+00 -0.00000000000E+00 -0.50000000000E+03  0.50000000000E+03  0.00000000000E+00 0. -1.
  1000024    1    1    2    0    0  0.97244871045E+02  0.24504665553E+03  0.38464472429E+03  0.50000000000E+03  0.18039957800E+03 0.  1.
 -1000024    1    1    2    0    0 -0.97244871045E+02 -0.24504665553E+03 -0.38464472429E+03  0.50000000000E+03  0.18039957800E+03 0.  1.
</event>
<event>
 4   0  0.7366543E-04  0.2236068E+02  0.7957747E-01  0.1516063E+00
      -11   -1    0    0    0    0  0.00000000000E+00  0.00000000000E+00  0.50000000000E+03  0.50000000000E+03  0.00000000000E+00 0.  1.
       11   -1    0    0    0    0 -0.00000000000E+00 -0.00000000000E+00 -0.50000000000E+03  0.50000000000E+03  0.00000000000E+00 0. -1.
  1000024    1    1    2    0    0  0.44509148463E+03  0.22737189502E+02  0.13723185776E+03  0.50000000000E+03  0.18039957800E+03 0.  1.
 -1000024    1    1    2    0    0 -0.44509148463E+03 -0.22737189502E+02 -0.13723185776E+03  0.50000000000E+03  0.18039957800E+03 0. -1.
</event>
<event>
 4   0  0.6712789E-04  0.2236068E+02  0.7957747E-01  0.1516063E+00
      -11   -1    0    0    0    0  0.00000000000E+00  0.00000000000E+00  0.50000000000E+03  0.50000000000E+03  0.00000000000E+00 0.  1.
       11   -1    0    0    0    0 -0.00000000000E+00 -0.00000000000E+00 -0.50000000000E+03  0.50000000000E+03  0.00000000000E+00 0. -1.
  1000024    1    1    2    0    0 -0.29399110863E+03  0.12575388765E+03  0.33942772433E+03  0.50000000000E+03  0.18039957800E+03 0. -1.
 -1000024    1    1    2    0    0  0.29399110863E+03 -0.12575388765E+03 -0.33942772433E+03  0.50000000000E+03  0.18039957800E+03 0.  1.
</event>
<event>
 4   0  0.1092222E-03  0.2236068E+02  0.7957747E-01  0.1516063E+00
      -11   -1    0    0    0    0  0.00000000000E+00  0.00000000000E+00  0.50000000000E+03  0.50000000000E+03  0.00000000000E+00 0.  1.
       11   -1    0    0    0    0 -0.00000000000E+00 -0.00000000000E+00 -0.50000000000E+03  0.50000000000E+03  0.00000000000E+00 0. -1.
  1000024    1    1    2    0    0  0.16220874844E+02 -0.40437196362E+03  0.23168122608E+03  0.50000000000E+03  0.18039957800E+03 0. -1.
 -1000024    1    1    2    0    0 -0.16220874844E+02  0.40437196362E+03 -0.23168122608E+03  0.50000000000E+03  0.18039957800E+03 0.  1.
</event>
<event>
 4   0  0.6712789E-04  0.2236068E+02  0.7957747E-01  0.1516063E+00
      -11   -1    0    0    0    0  0.00000000000E+00  0.00000000000E+00  0.50000000000E+03  0.50000000000E+03  0.00000000000E+00 0.  1.
       11   -1    0    0    0    0 -0.00000000000E+00 -0.00000000000E+00 -0.50000000000E+03  0.50000000000E+03  0.00000000000E+00 0. -1.
  1000024    1    1    2    0    0  0.30472107960E+03 -0.34820583240E+03  0.57911606678E+02  0.50000000000E+03  0.18039957800E+03 0. -1.
 -1000024    1    1    2    0    0 -0.30472107960E+03  0.34820583240E+03 -0.57911606678E+02  0.50000000000E+03  0.18039957800E+03 0.  1.
</event>
<event>
 4   0  0.1092222E-03  0.2236068E+02  0.7957747E-01  0.1516063E+00
      -11   -1    0    0    0    0  0.00000000000E+00  0.00000000000E+00  0.50000000000E+03  0.50000000000E+03  0.00000000000E+00 0.  1.
       11   -1    0    0    0    0 -0.00000000000E+00 -0.00000000000E+00 -0.50000000000E+03  0.50000000000E+03  0.00000000000E+00 0. -1.
  1000024    1    1    2    0    0  0.14028879695E+03 -0.43006462565E+03  0.11322306952E+03  0.50000000000E+03  0.18039957800E+03 0. -1.
 -1000024    1    1    2    0    0 -0.14028879695E+03  0.43006462565E+03 -0.11322306952E+03  0.50000000000E+03  0.18039957800E+03 0.  1.
</event>
<event>
 4   0  0.1092222E-03  0.2236068E+02  0.7957747E-01  0.1516063E+00
      -11   -1    0    0    0    0  0.00000000000E+00  0.00000000000E+00  0.50000000000E+03  0.50000000000E+03  0.00000000000E+00 0.  1.
       11   -1    0    0    0    0 -0.00000000000E+00 -0.00000000000E+00 -0.50000000000E+03  0.50000000000E+03  0.00000000000E+00 0. -1.
  1000024    1    1    2    0    0 -0.29576512126E+03 -0.22072415594E+03  0.28506110273E+03  0.50000000000E+03  0.18039957800E+03 0.  1.
 -1000024    1    1    2    0    0  0.29576512126E+03  0.22072415594E+03 -0.28506110273E+03  0.50000000000E+03  0.18039957800E+03 0. -1.
</event>
<event>
 4   0  0.6712789E-04  0.2236068E+02  0.7957747E-01  0.1516063E+00
      -11   -1    0    0    0    0  0.00000000000E+00  0.00000000000E+00  0.50000000000E+03  0.50000000000E+03  0.00000000000E+00 0.  1.
       11   -1    0    0    0    0 -0.00000000000E+00 -0.00000000000E+00 -0.50000000000E+03  0.50000000000E+03  0.00000000000E+00 0. -1.
  1000024    1    1    2    0    0 -0.21070702432E+03  0.60891756022E+02  0.41152246136E+03  0.50000000000E+03  0.18039957800E+03 0.  1.
 -1000024    1    1    2    0    0  0.21070702432E+03 -0.60891756022E+02 -0.41152246136E+03  0.50000000000E+03  0.18039957800E+03 0.  1.
</event>
<event>
 4   0  0.1092222E-03  0.2236068E+02  0.7957747E-01  0.1516063E+00
      -11   -1    0    0    0    0  0.00000000000E+00  0.00000000000E+00  0.50000000000E+03  0.50000000000E+03  0.00000000000E+00 0.  1.
       11   -1    0    0    0    0 -0.00000000000E+00 -0.00000000000E+00 -0.50000000000E+03  0.50000000000E+03  0.00000000000E+00 0. -1.
  1000024    1    1    2    0    0 -0.13200133970E+03 -0.43758336408E+03  0.92479392582E+02  0.50000000000E+03  0.18039957800E+03 0. -1.
 -1000024    1    1    2    0    0  0.13200133970E+03  0.43758336408E+03 -0.92479392582E+02  0.50000000000E+03  0.18039957800E+03 0.  1.
</event>
<event>
 4   0  0.1092222E-03  0.2236068E+02  0.7957747E-01  0.1516063E+00
      -11   -1    0    0    0    0  0.00000000000E+00  0.00000000000E+00  0.50000000000E+03  0.50000000000E+03  0.00000000000E+00 0.  1.
       11   -1    0    0    0    0 -0.00000000000E+00 -0.00000000000E+00 -0.50000000000E+03  0.50000000000E+03  0.00000000000E+00 0. -1.
  1000024    1    1    2    0    0  0.27476543734E+03 -0.26538584233E+03  0.26745149353E+03  0.50000000000E+03  0.18039957800E+03 0.  1.
 -1000024    1    1    2    0    0 -0.27476543734E+03  0.26538584233E+03 -0.26745149353E+03  0.50000000000E+03  0.18039957800E+03 0. -1.
</event>
<event>
 4   0  0.7366543E-04  0.2236068E+02  0.7957747E-01  0.1516063E+00
      -11   -1    0    0    0    0  0.00000000000E+00  0.00000000000E+00  0.50000000000E+03  0.50000000000E+03  0.00000000000E+00 0.  1.
       11   -1    0    0    0    0 -0.00000000000E+00 -0.00000000000E+00 -0.50000000000E+03  0.50000000000E+03  0.00000000000E+00 0. -1.
  1000024    1    1    2    0    0 -0.65551560519E+02  0.19722866260E+03  0.41744441524E+03  0.50000000000E+03  0.18039957800E+03 0. -1.
 -1000024    1    1    2    0    0  0.65551560519E+02 -0.19722866260E+03 -0.41744441524E+03  0.50000000000E+03  0.18039957800E+03 0.  1.
</event>
<event>
 4   0  0.7366543E-04  0.2236068E+02  0.7957747E-01  0.1516063E+00
      -11   -1    0    0    0    0  0.00000000000E+00  0.00000000000E+00  0.50000000000E+03  0.50000000000E+03  0.00000000000E+00 0.  1.
       11   -1    0    0    0    0 -0.00000000000E+00 -0.00000000000E+00 -0.50000000000E+03  0.50000000000E+03  0.00000000000E+00 0. -1.
  1000024    1    1    2    0    0 -0.23004900988E+03 -0.11322939848E+03  0.38950295073E+03  0.50000000000E+03  0.18039957800E+03 0. -1.
 -1000024    1    1    2    0    0  0.23004900988E+03  0.11322939848E+03 -0.38950295073E+03  0.50000000000E+03  0.18039957800E+03 0. -1.
</event>
<event>
 4   0  0.7366543E-04  0.2236068E+02  0.7957747E-01  0.1516063E+00
      -11   -1    0    0    0    0  0.00000000000E+00  0.00000000000E+00  0.50000000000E+03  0.50000000000E+03  0.00000000000E+00 0.  1.
       11   -1    0    0    0    0 -0.00000000000E+00 -0.00000000000E+00 -0.50000000000E+03  0.50000000000E+03  0.00000000000E+00 0. -1.
  1000024    1    1    2    0    0 -0.19644673677E+03  0.23215330858E+03  0.35351027309E+03  0.50000000000E+03  0.18039957800E+03 0. -1.
 -1000024    1    1    2    0    0  0.19644673677E+03 -0.23215330858E+03 -0.35351027309E+03  0.50000000000E+03  0.18039957800E+03 0.  1.
</event>
<event>
 4   0  0.6712789E-04  0.2236068E+02  0.7957747E-01  0.1516063E+00
      -11   -1    0    0    0    0  0.00000000000E+00  0.00000000000E+00  0.50000000000E+03  0.50000000000E+03  0.00000000000E+00 0.  1.
       11   -1    0    0    0    0 -0.00000000000E+00 -0.00000000000E+00 -0.50000000000E+03  0.50000000000E+03  0.00000000000E+00 0. -1.
  1000024    1    1    2    0    0 -0.22564251513E+03  0.24066243739E+03  0.32958009475E+03  0.50000000000E+03  0.18039957800E+03 0. -1.
 -1000024    1    1    2    0    0  0.22564251513E+03 -0.24066243739E+03 -0.32958009475E+03  0.50000000000E+03  0.18039957800E+03 0.  1.
</event>
<event>
 4   0  0.7366543E-04  0.2236068E+02  0.7957747E-01  0.1516063E+00
      -11   -1    0    0    0    0  0.00000000000E+00  0.00000000000E+00  0.50000000000E+03  0.50000000000E+03  0.00000000000E+00 0.  1.
       11   -1    0    0    0    0 -0.00000000000E+00 -0.00000000000E+00 -0.50000000000E+03  0.50000000000E+03  0.00000000000E+00 0. -1.
  1000024    1    1    2    0    0 -0.86048095216E+00  0.32414589390E+03  0.33523826049E+03  0.50000000000E+03  0.18039957800E+03 0.  1.
 -1000024    1    1    2    0    0  0.86048095216E+00 -0.32414589390E+03 -0.33523826049E+03  0.50000000000E+03  0.18039957800E+03 0. -1.
</event>
<event>
 4   0  0.6712789E-04  0.2236068E+02  0.7957747E-01  0.1516063E+00
      -11   -1    0    0    0    0  0.00000000000E+00  0.00000000000E+00  0.50000000000E+03  0.50000000000E+03  0.00000000000E+00 0.  1.
       11   -1    0    0    0    0 -0.00000000000E+00 -0.00000000000E+00 -0.50000000000E+03  0.50000000000E+03  0.00000000000E+00 0. -1.
  1000024    1    1    2    0    0  0.16054392121E+03  0.33236793169E+03 -0.28497929680E+03  0.50000000000E+03  0.18039957800E+03 0. -1.
 -1000024    1    1    2    0    0 -0.16054392121E+03 -0.33236793169E+03  0.28497929680E+03  0.50000000000E+03  0.18039957800E+03 0.  1.
</event>
<event>
 4   0  0.1092222E-03  0.2236068E+02  0.7957747E-01  0.1516063E+00
      -11   -1    0    0    0    0  0.00000000000E+00  0.00000000000E+00  0.50000000000E+03  0.50000000000E+03  0.00000000000E+00 0.  1.
       11   -1    0    0    0    0 -0.00000000000E+00 -0.00000000000E+00 -0.50000000000E+03  0.50000000000E+03  0.00000000000E+00 0. -1.
  1000024    1    1    2    0    0 -0.26722058116E+03 -0.34247667531E+02  0.38062612960E+03  0.50000000000E+03  0.18039957800E+03 0. -1.
 -1000024    1    1    2    0    0  0.26722058116E+03  0.34247667531E+02 -0.38062612960E+03  0.50000000000E+03  0.18039957800E+03 0.  1.
</event>
<event>
 4   0  0.6712789E-04  0.2236068E+02  0.7957747E-01  0.1516063E+00
      -11   -1    0    0    0    0  0.00000000000E+00  0.00000000000E+00  0.50000000000E+03  0.50000000000E+03  0.00000000000E+00 0.  1.
       11   -1    0    0    0    0 -0.00000000000E+00 -0.00000000000E+00 -0.50000000000E+03  0.50000000000E+03  0.00000000000E+00 0. -1.
  1000024    1    1    2    0    0  0.86386017935E+02 -0.12511852449E+03  0.44083874942E+03  0.50000000000E+03  0.18039957800E+03 0.  1.
 -1000024    1    1    2    0    0 -0.86386017935E+02  0.12511852449E+03 -0.44083874942E+03  0.50000000000E+03  0.18039957800E+03 0.  1.
</event>
<event>
 4   0  0.1092222E-03  0.2236068E+02  0.7957747E-01  0.1516063E+00
      -11   -1    0    0    0    0  0.00000000000E+00  0.00000000000E+00  0.50000000000E+03  0.50000000000E+03  0.00000000000E+00 0.  1.
       11   -1    0    0    0    0 -0.00000000000E+00 -0.00000000000E+00 -0.50000000000E+03  0.50000000000E+03  0.00000000000E+00 0. -1.
  1000024    1    1    2    0    0  0.87813159825E+02 -0.45768895222E+03  0.16299209623E+02  0.50000000000E+03  0.18039957800E+03 0. -1.
 -1000024    1    1    2    0    0 -0.87813159825E+02  0.45768895222E+03 -0.16299209623E+02  0.50000000000E+03  0.18039957800E+03 0.  1.
</event>
<event>
 4   0  0.1092222E-03  0.2236068E+02  0.7957747E-01  0.1516063E+00
      -11   -1    0    0    0    0  0.00000000000E+00  0.00000000000E+00  0.50000000000E+03  0.50000000000E+03  0.00000000000E+00 0.  1.
       11   -1    0    0    0    0 -0.00000000000E+00 -0.00000000000E+00 -0.50000000000E+03  0.50000000000E+03  0.00000000000E+00 0. -1.
  1000024    1    1    2    0    0 -0.16580037090E+03 -0.42381866268E+03  0.10170531172E+03  0.50000000000E+03  0.18039957800E+03 0.  1.
 -1000024    1    1    2    0    0  0.16580037090E+03  0.42381866268E+03 -0.10170531172E+03  0.50000000000E+03  0.18039957800E+03 0. -1.
</event>
<event>
 4   0  0.1092222E-03  0.2236068E+02  0.7957747E-01  0.1516063E+00
      -11   -1    0    0    0    0  0.00000000000E+00  0.00000000000E+00  0.50000000000E+03  0.50000000000E+03  0.00000000000E+00 0.  1.
       11   -1    0    0    0    0 -0.00000000000E+00 -0.00000000000E+00 -0.50000000000E+03  0.50000000000E+03  0.00000000000E+00 0. -1.
  1000024    1    1    2    0    0 -0.37660320651E+03  0.26188531005E+03 -0.83917229971E+02  0.50000000000E+03  0.18039957800E+03 0. -1.
 -1000024    1    1    2    0    0  0.37660320651E+03 -0.26188531005E+03  0.83917229971E+02  0.50000000000E+03  0.18039957800E+03 0.  1.
</event>
<event>
 4   0  0.1092222E-03  0.2236068E+02  0.7957747E-01  0.1516063E+00
      -11   -1    0    0    0    0  0.00000000000E+00  0.00000000000E+00  0.50000000000E+03  0.50000000000E+03  0.00000000000E+00 0.  1.
       11   -1    0    0    0    0 -0.00000000000E+00 -0.00000000000E+00 -0.50000000000E+03  0.50000000000E+03  0.00000000000E+00 0. -1.
  1000024    1    1    2    0    0  0.45133918012E+03 -0.11591231454E+03 -0.17699493993E+02  0.50000000000E+03  0.18039957800E+03 0. -1.
 -1000024    1    1    2    0    0 -0.45133918012E+03  0.11591231454E+03  0.17699493993E+02  0.50000000000E+03  0.18039957800E+03 0.  1.
</event>
<event>
 4   0  0.1092222E-03  0.2236068E+02  0.7957747E-01  0.1516063E+00
      -11   -1    0    0    0    0  0.00000000000E+00  0.00000000000E+00  0.50000000000E+03  0.50000000000E+03  0.00000000000E+00 0.  1.
       11   -1    0    0    0    0 -0.00000000000E+00 -0.00000000000E+00 -0.50000000000E+03  0.50000000000E+03  0.00000000000E+00 0. -1.
  1000024    1    1    2    0    0  0.31512478796E+03 -0.27735063860E+03  0.20304921456E+03  0.50000000000E+03  0.18039957800E+03 0.  1.
 -1000024    1    1    2    0    0 -0.31512478796E+03  0.27735063860E+03 -0.20304921456E+03  0.50000000000E+03  0.18039957800E+03 0. -1.
</event>
<event>
 4   0  0.6712789E-04  0.2236068E+02  0.7957747E-01  0.1516063E+00
      -11   -1    0    0    0    0  0.00000000000E+00  0.00000000000E+00  0.50000000000E+03  0.50000000000E+03  0.00000000000E+00 0.  1.
       11   -1    0    0    0    0 -0.00000000000E+00 -0.00000000000E+00 -0.50000000000E+03  0.50000000000E+03  0.00000000000E+00 0. -1.
  1000024    1    1    2    0    0  0.34538324337E+03  0.12469601677E+03  0.28743227178E+03  0.50000000000E+03  0.18039957800E+03 0.  1.
 -1000024    1    1    2    0    0 -0.34538324337E+03 -0.12469601677E+03 -0.28743227178E+03  0.50000000000E+03  0.18039957800E+03 0.  1.
</event>
<event>
 4   0  0.6712789E-04  0.2236068E+02  0.7957747E-01  0.1516063E+00
      -11   -1    0    0    0    0  0.00000000000E+00  0.00000000000E+00  0.50000000000E+03  0.50000000000E+03  0.00000000000E+00 0.  1.
       11   -1    0    0    0    0 -0.00000000000E+00 -0.00000000000E+00 -0.50000000000E+03  0.50000000000E+03  0.00000000000E+00 0. -1.
  1000024    1    1    2    0    0  0.10495821290E+03  0.30807339356E+03  0.33396189899E+03  0.50000000000E+03  0.18039957800E+03 0.  1.
 -1000024    1    1    2    0    0 -0.10495821290E+03 -0.30807339356E+03 -0.33396189899E+03  0.50000000000E+03  0.18039957800E+03 0. -1.
</event>
<event>
 4   0  0.1092222E-03  0.2236068E+02  0.7957747E-01  0.1516063E+00
      -11   -1    0    0    0    0  0.00000000000E+00  0.00000000000E+00  0.50000000000E+03  0.50000000000E+03  0.00000000000E+00 0.  1.
       11   -1    0    0    0    0 -0.00000000000E+00 -0.00000000000E+00 -0.50000000000E+03  0.50000000000E+03  0.00000000000E+00 0. -1.
  1000024    1    1    2    0    0  0.15515356941E+03  0.28803312075E+03  0.33229547620E+03  0.50000000000E+03  0.18039957800E+03 0.  1.
 -1000024    1    1    2    0    0 -0.15515356941E+03 -0.28803312075E+03 -0.33229547620E+03  0.50000000000E+03  0.18039957800E+03 0. -1.
</event>
<event>
 4   0  0.7366543E-04  0.2236068E+02  0.7957747E-01  0.1516063E+00
      -11   -1    0    0    0    0  0.00000000000E+00  0.00000000000E+00  0.50000000000E+03  0.50000000000E+03  0.00000000000E+00 0.  1.
       11   -1    0    0    0    0 -0.00000000000E+00 -0.00000000000E+00 -0.50000000000E+03  0.50000000000E+03  0.00000000000E+00 0. -1.
  1000024    1    1    2    0    0 -0.15638336999E+03 -0.25784243973E+03  0.35569299982E+03  0.50000000000E+03  0.18039957800E+03 0. -1.
 -1000024    1    1    2    0    0  0.15638336999E+03  0.25784243973E+03 -0.35569299982E+03  0.50000000000E+03  0.18039957800E+03 0.  1.
</event>
<event>
 4   0  0.7366543E-04  0.2236068E+02  0.7957747E-01  0.1516063E+00
      -11   -1    0    0    0    0  0.00000000000E+00  0.00000000000E+00  0.50000000000E+03  0.50000000000E+03  0.00000000000E+00 0.  1.
       11   -1    0    0    0    0 -0.00000000000E+00 -0.00000000000E+00 -0.50000000000E+03  0.50000000000E+03  0.00000000000E+00 0. -1.
  1000024    1    1    2    0    0 -0.33332458700E+03  0.32140967387E+03  0.55195411947E+02  0.50000000000E+03  0.18039957800E+03 0. -1.
 -1000024    1    1    2    0    0  0.33332458700E+03 -0.32140967387E+03 -0.55195411947E+02  0.50000000000E+03  0.18039957800E+03 0.  1.
</event>
<event>
 4   0  0.1092222E-03  0.2236068E+02  0.7957747E-01  0.1516063E+00
      -11   -1    0    0    0    0  0.00000000000E+00  0.00000000000E+00  0.50000000000E+03  0.50000000000E+03  0.00000000000E+00 0.  1.
       11   -1    0    0    0    0 -0.00000000000E+00 -0.00000000000E+00 -0.50000000000E+03  0.50000000000E+03  0.00000000000E+00 0. -1.
  1000024    1    1    2    0    0 -0.60552118152E+02  0.42820620804E+03  0.17443874752E+03  0.50000000000E+03  0.18039957800E+03 0.  1.
 -1000024    1    1    2    0    0  0.60552118152E+02 -0.42820620804E+03 -0.17443874752E+03  0.50000000000E+03  0.18039957800E+03 0. -1.
</event>
<event>
 4   0  0.1092222E-03  0.2236068E+02  0.7957747E-01  0.1516063E+00
      -11   -1    0    0    0    0  0.00000000000E+00  0.00000000000E+00  0.50000000000E+03  0.50000000000E+03  0.00000000000E+00 0.  1.
       11   -1    0    0    0    0 -0.00000000000E+00 -0.00000000000E+00 -0.50000000000E+03  0.50000000000E+03  0.00000000000E+00 0. -1.
  1000024    1    1    2    0    0 -0.16586610036E+03 -0.40253180734E+03  0.16707056319E+03  0.50000000000E+03  0.18039957800E+03 0.  1.
 -1000024    1    1    2    0    0  0.16586610036E+03  0.40253180734E+03 -0.16707056319E+03  0.50000000000E+03  0.18039957800E+03 0. -1.
</event>
<event>
 4   0  0.1092222E-03  0.2236068E+02  0.7957747E-01  0.1516063E+00
      -11   -1    0    0    0    0  0.00000000000E+00  0.00000000000E+00  0.50000000000E+03  0.50000000000E+03  0.00000000000E+00 0.  1.
       11   -1    0    0    0    0 -0.00000000000E+00 -0.00000000000E+00 -0.50000000000E+03  0.50000000000E+03  0.00000000000E+00 0. -1.
  1000024    1    1    2    0    0  0.17552298892E+03 -0.38595227439E+03  0.19413529949E+03  0.50000000000E+03  0.18039957800E+03 0. -1.
 -1000024    1    1    2    0    0 -0.17552298892E+03  0.38595227439E+03 -0.19413529949E+03  0.50000000000E+03  0.18039957800E+03 0.  1.
</event>
<event>
 4   0  0.6712789E-04  0.2236068E+02  0.7957747E-01  0.1516063E+00
      -11   -1    0    0    0    0  0.00000000000E+00  0.00000000000E+00  0.50000000000E+03  0.50000000000E+03  0.00000000000E+00 0.  1.
       11   -1    0    0    0    0 -0.00000000000E+00 -0.00000000000E+00 -0.50000000000E+03  0.50000000000E+03  0.00000000000E+00 0. -1.
  1000024    1    1    2    0    0  0.12144383837E+03 -0.45021029792E+03 -0.42513557973E+01  0.50000000000E+03  0.18039957800E+03 0. -1.
 -1000024    1    1    2    0    0 -0.12144383837E+03  0.45021029792E+03  0.42513557973E+01  0.50000000000E+03  0.18039957800E+03 0.  1.
</event>
<event>
 4   0  0.6712789E-04  0.2236068E+02  0.7957747E-01  0.1516063E+00
      -11   -1    0    0    0    0  0.00000000000E+00  0.00000000000E+00  0.50000000000E+03  0.50000000000E+03  0.00000000000E+00 0.  1.
       11   -1    0    0    0    0 -0.00000000000E+00 -0.00000000000E+00 -0.50000000000E+03  0.50000000000E+03  0.00000000000E+00 0. -1.
  1000024    1    1    2    0    0  0.26460683283E+03 -0.13105683859E+03  0.36092010382E+03  0.50000000000E+03  0.18039957800E+03 0.  1.
 -1000024    1    1    2    0    0 -0.26460683283E+03  0.13105683859E+03 -0.36092010382E+03  0.50000000000E+03  0.18039957800E+03 0. -1.
</event>
<event>
 4   0  0.7366543E-04  0.2236068E+02  0.7957747E-01  0.1516063E+00
      -11   -1    0    0    0    0  0.00000000000E+00  0.00000000000E+00  0.50000000000E+03  0.50000000000E+03  0.00000000000E+00 0.  1.
       11   -1    0    0    0    0 -0.00000000000E+00 -0.00000000000E+00 -0.50000000000E+03  0.50000000000E+03  0.00000000000E+00 0. -1.
  1000024    1    1    2    0    0 -0.32938424100E+03  0.22319391657E+03  0.24320051326E+03  0.50000000000E+03  0.18039957800E+03 0. -1.
 -1000024    1    1    2    0    0  0.32938424100E+03 -0.22319391657E+03 -0.24320051326E+03  0.50000000000E+03  0.18039957800E+03 0.  1.
</event>
<event>
 4   0  0.6712789E-04  0.2236068E+02  0.7957747E-01  0.1516063E+00
      -11   -1    0    0    0    0  0.00000000000E+00  0.00000000000E+00  0.50000000000E+03  0.50000000000E+03  0.00000000000E+00 0.  1.
       11   -1    0    0    0    0 -0.00000000000E+00 -0.00000000000E+00 -0.50000000000E+03  0.50000000000E+03  0.00000000000E+00 0. -1.
  1000024    1    1    2    0    0 -0.41040671830E+03 -0.22126073594E+03  0.81243194627E+01  0.50000000000E+03  0.18039957800E+03 0. -1.
 -1000024    1    1    2    0    0  0.41040671830E+03  0.22126073594E+03 -0.81243194627E+01  0.50000000000E+03  0.18039957800E+03 0.  1.
</event>
<event>
 4   0  0.7366543E-04  0.2236068E+02  0.7957747E-01  0.1516063E+00
      -11   -1    0    0    0    0  0.00000000000E+00  0.00000000000E+00  0.50000000000E+03  0.50000000000E+03  0.00000000000E+00 0.  1.
       11   -1    0    0    0    0 -0.00000000000E+00 -0.00000000000E+00 -0.50000000000E+03  0.50000000000E+03  0.00000000000E+00 0. -1.
  1000024    1    1    2    0    0  0.86013130079E+02  0.32957203463E+03  0.31849647989E+03  0.50000000000E+03  0.18039957800E+03 0. -1.
 -1000024    1    1    2    0    0 -0.86013130079E+02 -0.32957203463E+03 -0.31849647989E+03  0.50000000000E+03  0.18039957800E+03 0.  1.
</event>
<event>
 4   0  0.1092222E-03  0.2236068E+02  0.7957747E-01  0.1516063E+00
      -11   -1    0    0    0    0  0.00000000000E+00  0.00000000000E+00  0.50000000000E+03  0.50000000000E+03  0.00000000000E+00 0.  1.
       11   -1    0    0    0    0 -0.00000000000E+00 -0.00000000000E+00 -0.50000000000E+03  0.50000000000E+03  0.00000000000E+00 0. -1.
  1000024    1    1    2    0    0 -0.22166463630E+03 -0.31292959979E+02  0.40907399322E+03  0.50000000000E+03  0.18039957800E+03 0.  1.
 -1000024    1    1    2    0    0  0.22166463630E+03  0.31292959979E+02 -0.40907399322E+03  0.50000000000E+03  0.18039957800E+03 0. -1.
</event>
<event>
 4   0  0.7366543E-04  0.2236068E+02  0.7957747E-01  0.1516063E+00
      -11   -1    0    0    0    0  0.00000000000E+00  0.00000000000E+00  0.50000000000E+03  0.50000000000E+03  0.00000000000E+00 0.  1.
       11   -1    0    0    0    0 -0.00000000000E+00 -0.00000000000E+00 -0.50000000000E+03  0.50000000000E+03  0.00000000000E+00 0. -1.
  1000024    1    1    2    0    0  0.34994747884E+03 -0.29555729939E+03  0.87399296867E+02  0.50000000000E+03  0.18039957800E+03 0.  1.
 -1000024    1    1    2    0    0 -0.34994747884E+03  0.29555729939E+03 -0.87399296867E+02  0.50000000000E+03  0.18039957800E+03 0. -1.
</event>
<event>
 4   0  0.1092222E-03  0.2236068E+02  0.7957747E-01  0.1516063E+00
      -11   -1    0    0    0    0  0.00000000000E+00  0.00000000000E+00  0.50000000000E+03  0.50000000000E+03  0.00000000000E+00 0.  1.
       11   -1    0    0    0    0 -0.00000000000E+00 -0.00000000000E+00 -0.50000000000E+03  0.50000000000E+03  0.00000000000E+00 0. -1.
  1000024    1    1    2    0    0  0.80171246985E+02 -0.35934603599E+03  0.28617999551E+03  0.50000000000E+03  0.18039957800E+03 0. -1.
 -1000024    1    1    2    0    0 -0.80171246985E+02  0.35934603599E+03 -0.28617999551E+03  0.50000000000E+03  0.18039957800E+03 0.  1.
</event>
<event>
 4   0  0.6712789E-04  0.2236068E+02  0.7957747E-01  0.1516063E+00
      -11   -1    0    0    0    0  0.00000000000E+00  0.00000000000E+00  0.50000000000E+03  0.50000000000E+03  0.00000000000E+00 0.  1.
       11   -1    0    0    0    0 -0.00000000000E+00 -0.00000000000E+00 -0.50000000000E+03  0.50000000000E+03  0.00000000000E+00 0. -1.
  1000024    1    1    2    0    0 -0.16773752001E+03  0.24246795722E+03  0.36128853616E+03  0.50000000000E+03  0.18039957800E+03 0. -1.
 -1000024    1    1    2    0    0  0.16773752001E+03 -0.24246795722E+03 -0.36128853616E+03  0.50000000000E+03  0.18039957800E+03 0.  1.
</event>
<event>
 4   0  0.1092222E-03  0.2236068E+02  0.7957747E-01  0.1516063E+00
      -11   -1    0    0    0    0  0.00000000000E+00  0.00000000000E+00  0.50000000000E+03  0.50000000000E+03  0.00000000000E+00 0.  1.
       11   -1    0    0    0    0 -0.00000000000E+00 -0.00000000000E+00 -0.50000000000E+03  0.50000000000E+03  0.00000000000E+00 0. -1.
  1000024    1    1    2    0    0  0.35711805044E+02 -0.39240306405E+03  0.24940026977E+03  0.50000000000E+03  0.18039957800E+03 0. -1.
 -1000024    1    1    2    0    0 -0.35711805044E+02  0.39240306405E+03 -0.24940026977E+03  0.50000000000E+03  0.18039957800E+03 0.  1.
</event>
<event>
 4   0  0.1092222E-03  0.2236068E+02  0.7957747E-01  0.1516063E+00
      -11   -1    0    0    0    0  0.00000000000E+00  0.00000000000E+00  0.50000000000E+03  0.50000000000E+03  0.00000000000E+00 0.  1.
       11   -1    0    0    0    0 -0.00000000000E+00 -0.00000000000E+00 -0.50000000000E+03  0.50000000000E+03  0.00000000000E+00 0. -1.
  1000024    1    1    2    0    0 -0.25409298069E+03  0.91420924461E+02  0.38017754273E+03  0.50000000000E+03  0.18039957800E+03 0.  1.
 -1000024    1    1    2    0    0  0.25409298069E+03 -0.91420924461E+02 -0.38017754273E+03  0.50000000000E+03  0.18039957800E+03 0. -1.
</event>
<event>
 4   0  0.6712789E-04  0.2236068E+02  0.7957747E-01  0.1516063E+00
      -11   -1    0    0    0    0  0.00000000000E+00  0.00000000000E+00  0.50000000000E+03  0.50000000000E+03  0.00000000000E+00 0.  1.
       11   -1    0    0    0    0 -0.00000000000E+00 -0.00000000000E+00 -0.50000000000E+03  0.50000000000E+03  0.00000000000E+00 0. -1.
  1000024    1    1    2    0    0  0.23515633394E+03 -0.47045288031E+02  0.39993028360E+03  0.50000000000E+03  0.18039957800E+03 0. -1.
 -1000024    1    1    2    0    0 -0.23515633394E+03  0.47045288031E+02 -0.39993028360E+03  0.50000000000E+03  0.18039957800E+03 0.  1.
</event>
<event>
 4   0  0.7366543E-04  0.2236068E+02  0.7957747E-01  0.1516063E+00
      -11   -1    0    0    0    0  0.00000000000E+00  0.00000000000E+00  0.50000000000E+03  0.50000000000E+03  0.00000000000E+00 0.  1.
       11   -1    0    0    0    0 -0.00000000000E+00 -0.00000000000E+00 -0.50000000000E+03  0.50000000000E+03  0.00000000000E+00 0. -1.
  1000024    1    1    2    0    0 -0.16688257120E+03 -0.76564001741E+02  0.42865388523E+03  0.50000000000E+03  0.18039957800E+03 0. -1.
 -1000024    1    1    2    0    0  0.16688257120E+03  0.76564001741E+02 -0.42865388523E+03  0.50000000000E+03  0.18039957800E+03 0. -1.
</event>
<event>
 4   0  0.1092222E-03  0.2236068E+02  0.7957747E-01  0.1516063E+00
      -11   -1    0    0    0    0  0.00000000000E+00  0.00000000000E+00  0.50000000000E+03  0.50000000000E+03  0.00000000000E+00 0.  1.
       11   -1    0    0    0    0 -0.00000000000E+00 -0.00000000000E+00 -0.50000000000E+03  0.50000000000E+03  0.00000000000E+00 0. -1.
  1000024    1    1    2    0    0  0.16264325125E+03 -0.31623812613E+03  0.30165644807E+03  0.50000000000E+03  0.18039957800E+03 0.  1.
 -1000024    1    1    2    0    0 -0.16264325125E+03  0.31623812613E+03 -0.30165644807E+03  0.50000000000E+03  0.18039957800E+03 0. -1.
</event>
<event>
 4   0  0.1092222E-03  0.2236068E+02  0.7957747E-01  0.1516063E+00
      -11   -1    0    0    0    0  0.00000000000E+00  0.00000000000E+00  0.50000000000E+03  0.50000000000E+03  0.00000000000E+00 0.  1.
       11   -1    0    0    0    0 -0.00000000000E+00 -0.00000000000E+00 -0.50000000000E+03  0.50000000000E+03  0.00000000000E+00 0. -1.
  1000024    1    1    2    0    0  0.33886487444E+03 -0.20143013652E+02  0.31971995266E+03  0.50000000000E+03  0.18039957800E+03 0. -1.
 -1000024    1    1    2    0    0 -0.33886487444E+03  0.20143013652E+02 -0.31971995266E+03  0.50000000000E+03  0.18039957800E+03 0.  1.
</event>
<event>
 4   0  0.1092222E-03  0.2236068E+02  0.7957747E-01  0.1516063E+00
      -11   -1    0    0    0    0  0.00000000000E+00  0.00000000000E+00  0.50000000000E+03  0.50000000000E+03  0.00000000000E+00 0.  1.
       11   -1    0    0    0    0 -0.00000000000E+00 -0.00000000000E+00 -0.50000000000E+03  0.50000000000E+03  0.00000000000E+00 0. -1.
  1000024    1    1    2    0    0 -0.44764784323E+02  0.34951580327E+03  0.30543544262E+03  0.50000000000E+03  0.18039957800E+03 0. -1.
 -1000024    1    1    2    0    0  0.44764784323E+02 -0.34951580327E+03 -0.30543544262E+03  0.50000000000E+03  0.18039957800E+03 0.  1.
</event>
<event>
 4   0  0.1092222E-03  0.2236068E+02  0.7957747E-01  0.1516063E+00
      -11   -1    0    0    0    0  0.00000000000E+00  0.00000000000E+00  0.50000000000E+03  0.50000000000E+03  0.00000000000E+00 0.  1.
       11   -1    0    0    0    0 -0.00000000000E+00 -0.00000000000E+00 -0.50000000000E+03  0.50000000000E+03  0.00000000000E+00 0. -1.
  1000024    1    1    2    0    0 -0.16477598266E+03 -0.43568126112E+03  0.22061425649E+02  0.50000000000E+03  0.18039957800E+03 0.  1.
 -1000024    1    1    2    0    0  0.16477598266E+03  0.43568126112E+03 -0.22061425649E+02  0.50000000000E+03  0.18039957800E+03 0. -1.
</event>
<event>
 4   0  0.6712789E-04  0.2236068E+02  0.7957747E-01  0.1516063E+00
      -11   -1    0    0    0    0  0.00000000000E+00  0.00000000000E+00  0.50000000000E+03  0.50000000000E+03  0.00000000000E+00 0.  1.
       11   -1    0    0    0    0 -0.00000000000E+00 -0.00000000000E+00 -0.50000000000E+03  0.50000000000E+03  0.00000000000E+00 0. -1.
  1000024    1    1    2    0    0 -0.37499467507E+03  0.85060634145E+01  0.27706070240E+03  0.50000000000E+03  0.18039957800E+03 0.  1.
 -1000024    1    1    2    0    0  0.37499467507E+03 -0.85060634145E+01 -0.27706070240E+03  0.50000000000E+03  0.18039957800E+03 0.  1.
</event>
<event>
 4   0  0.7366543E-04  0.2236068E+02  0.7957747E-01  0.1516063E+00
      -11   -1    0    0    0    0  0.00000000000E+00  0.00000000000E+00  0.50000000000E+03  0.50000000000E+03  0.00000000000E+00 0.  1.
       11   -1    0    0    0    0 -0.00000000000E+00 -0.00000000000E+00 -0.50000000000E+03  0.50000000000E+03  0.00000000000E+00 0. -1.
  1000024    1    1    2    0    0 -0.28507216903E+03 -0.14402085632E+03  0.33977616698E+03  0.50000000000E+03  0.18039957800E+03 0. -1.
 -1000024    1    1    2    0    0  0.28507216903E+03  0.14402085632E+03 -0.33977616698E+03  0.50000000000E+03  0.18039957800E+03 0. -1.
</event>
<event>
 4   0  0.1092222E-03  0.2236068E+02  0.7957747E-01  0.1516063E+00
      -11   -1    0    0    0    0  0.00000000000E+00  0.00000000000E+00  0.50000000000E+03  0.50000000000E+03  0.00000000000E+00 0.  1.
       11   -1    0    0    0    0 -0.00000000000E+00 -0.00000000000E+00 -0.50000000000E+03  0.50000000000E+03  0.00000000000E+00 0. -1.
  1000024    1    1    2    0    0 -0.20887560731E+02 -0.28018996285E+03  0.37217373199E+03  0.50000000000E+03  0.18039957800E+03 0.  1.
 -1000024    1    1    2    0    0  0.20887560731E+02  0.28018996285E+03 -0.37217373199E+03  0.50000000000E+03  0.18039957800E+03 0. -1.
</event>
<event>
 4   0  0.1092222E-03  0.2236068E+02  0.7957747E-01  0.1516063E+00
      -11   -1    0    0    0    0  0.00000000000E+00  0.00000000000E+00  0.50000000000E+03  0.50000000000E+03  0.00000000000E+00 0.  1.
       11   -1    0    0    0    0 -0.00000000000E+00 -0.00000000000E+00 -0.50000000000E+03  0.50000000000E+03  0.00000000000E+00 0. -1.
  1000024    1    1    2    0    0 -0.39969537015E+03 -0.14359918139E+02  0.23977780567E+03  0.50000000000E+03  0.18039957800E+03 0.  1.
 -1000024    1    1    2    0    0  0.39969537015E+03  0.14359918139E+02 -0.23977780567E+03  0.50000000000E+03  0.18039957800E+03 0. -1.
</event>
<event>
 4   0  0.1092222E-03  0.2236068E+02  0.7957747E-01  0.1516063E+00
      -11   -1    0    0    0    0  0.00000000000E+00  0.00000000000E+00  0.50000000000E+03  0.50000000000E+03  0.00000000000E+00 0.  1.
       11   -1    0    0    0    0 -0.00000000000E+00 -0.00000000000E+00 -0.50000000000E+03  0.50000000000E+03  0.00000000000E+00 0. -1.
  1000024    1    1    2    0    0 -0.36432202069E+03 -0.60075919204E+02  0.28480930713E+03  0.50000000000E+03  0.18039957800E+03 0.  1.
 -1000024    1    1    2    0    0  0.36432202069E+03  0.60075919204E+02 -0.28480930713E+03  0.50000000000E+03  0.18039957800E+03 0. -1.
</event>
<event>
 4   0  0.1092222E-03  0.2236068E+02  0.7957747E-01  0.1516063E+00
      -11   -1    0    0    0    0  0.00000000000E+00  0.00000000000E+00  0.50000000000E+03  0.50000000000E+03  0.00000000000E+00 0.  1.
       11   -1    0    0    0    0 -0.00000000000E+00 -0.00000000000E+00 -0.50000000000E+03  0.50000000000E+03  0.00000000000E+00 0. -1.
  1000024    1    1    2    0    0 -0.44074151667E+03  0.12295643634E+03 -0.89914528864E+02  0.50000000000E+03  0.18039957800E+03 0. -1.
 -1000024    1    1    2    0    0  0.44074151667E+03 -0.12295643634E+03  0.89914528864E+02  0.50000000000E+03  0.18039957800E+03 0.  1.
</event>
<event>
 4   0  0.6712789E-04  0.2236068E+02  0.7957747E-01  0.1516063E+00
      -11   -1    0    0    0    0  0.00000000000E+00  0.00000000000E+00  0.50000000000E+03  0.50000000000E+03  0.00000000000E+00 0.  1.
       11   -1    0    0    0    0 -0.00000000000E+00 -0.00000000000E+00 -0.50000000000E+03  0.50000000000E+03  0.00000000000E+00 0. -1.
  1000024    1    1    2    0    0 -0.45092605404E+03 -0.44886603358E+02  0.11003126320E+03  0.50000000000E+03  0.18039957800E+03 0.  1.
 -1000024    1    1    2    0    0  0.45092605404E+03  0.44886603358E+02 -0.11003126320E+03  0.50000000000E+03  0.18039957800E+03 0. -1.
</event>
<event>
 4   0  0.1092222E-03  0.2236068E+02  0.7957747E-01  0.1516063E+00
      -11   -1    0    0    0    0  0.00000000000E+00  0.00000000000E+00  0.50000000000E+03  0.50000000000E+03  0.00000000000E+00 0.  1.
       11   -1    0    0    0    0 -0.00000000000E+00 -0.00000000000E+00 -0.50000000000E+03  0.50000000000E+03  0.00000000000E+00 0. -1.
  1000024    1    1    2    0    0 -0.21934916014E+03 -0.23006341725E+03  0.34119314508E+03  0.50000000000E+03  0.18039957800E+03 0.  1.
 -1000024    1    1    2    0    0  0.21934916014E+03  0.23006341725E+03 -0.34119314508E+03  0.50000000000E+03  0.18039957800E+03 0. -1.
</event>
<event>
 4   0  0.6712789E-04  0.2236068E+02  0.7957747E-01  0.1516063E+00
      -11   -1    0    0    0    0  0.00000000000E+00  0.00000000000E+00  0.50000000000E+03  0.50000000000E+03  0.00000000000E+00 0.  1.
       11   -1    0    0    0    0 -0.00000000000E+00 -0.00000000000E+00 -0.50000000000E+03  0.50000000000E+03  0.00000000000E+00 0. -1.
  1000024    1    1    2    0    0  0.89900459544E+02 -0.45305211694E+03  0.64169143392E+02  0.50000000000E+03  0.18039957800E+03 0. -1.
 -1000024    1    1    2    0    0 -0.89900459544E+02  0.45305211694E+03 -0.64169143392E+02  0.50000000000E+03  0.18039957800E+03 0.  1.
</event>
<event>
 4   0  0.1092222E-03  0.2236068E+02  0.7957747E-01  0.1516063E+00
      -11   -1    0    0    0    0  0.00000000000E+00  0.00000000000E+00  0.50000000000E+03  0.50000000000E+03  0.00000000000E+00 0.  1.
       11   -1    0    0    0    0 -0.00000000000E+00 -0.00000000000E+00 -0.50000000000E+03  0.50000000000E+03  0.00000000000E+00 0. -1.
  1000024    1    1    2    0    0 -0.15076646454E+03  0.41181399397E+03  0.15853926896E+03  0.50000000000E+03  0.18039957800E+03 0.  1.
 -1000024    1    1    2    0    0  0.15076646454E+03 -0.41181399397E+03 -0.15853926896E+03  0.50000000000E+03  0.18039957800E+03 0. -1.
</event>
<event>
 4   0  0.6712789E-04  0.2236068E+02  0.7957747E-01  0.1516063E+00
      -11   -1    0    0    0    0  0.00000000000E+00  0.00000000000E+00  0.50000000000E+03  0.50000000000E+03  0.00000000000E+00 0.  1.
       11   -1    0    0    0    0 -0.00000000000E+00 -0.00000000000E+00 -0.50000000000E+03  0.50000000000E+03  0.00000000000E+00 0. -1.
  1000024    1    1    2    0    0  0.28288606702E+03  0.20873024964E+03  0.30637093242E+03  0.50000000000E+03  0.18039957800E+03 0. -1.
 -1000024    1    1    2    0    0 -0.28288606702E+03 -0.20873024964E+03 -0.30637093242E+03  0.50000000000E+03  0.18039957800E+03 0.  1.
</event>
<event>
 4   0  0.7366543E-04  0.2236068E+02  0.7957747E-01  0.1516063E+00
      -11   -1    0    0    0    0  0.00000000000E+00  0.00000000000E+00  0.50000000000E+03  0.50000000000E+03  0.00000000000E+00 0.  1.
       11   -1    0    0    0    0 -0.00000000000E+00 -0.00000000000E+00 -0.50000000000E+03  0.50000000000E+03  0.00000000000E+00 0. -1.
  1000024    1    1    2    0    0 -0.14130080276E+03 -0.33127034995E+03  0.29622631658E+03  0.50000000000E+03  0.18039957800E+03 0. -1.
 -1000024    1    1    2    0    0  0.14130080276E+03  0.33127034995E+03 -0.29622631658E+03  0.50000000000E+03  0.18039957800E+03 0.  1.
</event>
<event>
 4   0  0.1092222E-03  0.2236068E+02  0.7957747E-01  0.1516063E+00
      -11   -1    0    0    0    0  0.00000000000E+00  0.00000000000E+00  0.50000000000E+03  0.50000000000E+03  0.00000000000E+00 0.  1.
       11   -1    0    0    0    0 -0.00000000000E+00 -0.00000000000E+00 -0.50000000000E+03  0.50000000000E+03  0.00000000000E+00 0. -1.
  1000024    1    1    2    0    0 -0.39022617398E+03 -0.15900369195E+03  0.19974321352E+03  0.50000000000E+03  0.18039957800E+03 0. -1.
 -1000024    1    1    2    0    0  0.39022617398E+03  0.15900369195E+03 -0.19974321352E+03  0.50000000000E+03  0.18039957800E+03 0. -1.
</event>
<event>
 4   0  0.1092222E-03  0.2236068E+02  0.7957747E-01  0.1516063E+00
      -11   -1    0    0    0    0  0.00000000000E+00  0.00000000000E+00  0.50000000000E+03  0.50000000000E+03  0.00000000000E+00 0.  1.
       11   -1    0    0    0    0 -0.00000000000E+00 -0.00000000000E+00 -0.50000000000E+03  0.50000000000E+03  0.00000000000E+00 0. -1.
  1000024    1    1    2    0    0  0.18868481583E+03 -0.14952703526E+03  0.39936912532E+03  0.50000000000E+03  0.18039957800E+03 0.  1.
 -1000024    1    1    2    0    0 -0.18868481583E+03  0.14952703526E+03 -0.39936912532E+03  0.50000000000E+03  0.18039957800E+03 0.  1.
</event>
<event>
 4   0  0.7366543E-04  0.2236068E+02  0.7957747E-01  0.1516063E+00
      -11   -1    0    0    0    0  0.00000000000E+00  0.00000000000E+00  0.50000000000E+03  0.50000000000E+03  0.00000000000E+00 0.  1.
       11   -1    0    0    0    0 -0.00000000000E+00 -0.00000000000E+00 -0.50000000000E+03  0.50000000000E+03  0.00000000000E+00 0. -1.
  1000024    1    1    2    0    0 -0.34130944467E+03 -0.42087304775E+02  0.31494843072E+03  0.50000000000E+03  0.18039957800E+03 0.  1.
 -1000024    1    1    2    0    0  0.34130944467E+03  0.42087304775E+02 -0.31494843072E+03  0.50000000000E+03  0.18039957800E+03 0. -1.
</event>
<event>
 4   0  0.1092222E-03  0.2236068E+02  0.7957747E-01  0.1516063E+00
      -11   -1    0    0    0    0  0.00000000000E+00  0.00000000000E+00  0.50000000000E+03  0.50000000000E+03  0.00000000000E+00 0.  1.
       11   -1    0    0    0    0 -0.00000000000E+00 -0.00000000000E+00 -0.50000000000E+03  0.50000000000E+03  0.00000000000E+00 0. -1.
  1000024    1    1    2    0    0 -0.73052722403E+01 -0.30285704357E+03  0.35451408493E+03  0.50000000000E+03  0.18039957800E+03 0.  1.
 -1000024    1    1    2    0    0  0.73052722403E+01  0.30285704357E+03 -0.35451408493E+03  0.50000000000E+03  0.18039957800E+03 0. -1.
</event>
<event>
 4   0  0.1092222E-03  0.2236068E+02  0.7957747E-01  0.1516063E+00
      -11   -1    0    0    0    0  0.00000000000E+00  0.00000000000E+00  0.50000000000E+03  0.50000000000E+03  0.00000000000E+00 0.  1.
       11   -1    0    0    0    0 -0.00000000000E+00 -0.00000000000E+00 -0.50000000000E+03  0.50000000000E+03  0.00000000000E+00 0. -1.
  1000024    1    1    2    0    0  0.45061212851E+03  0.60817249828E+02  0.10346962848E+03  0.50000000000E+03  0.18039957800E+03 0. -1.
 -1000024    1    1    2    0    0 -0.45061212851E+03 -0.60817249828E+02 -0.10346962848E+03  0.50000000000E+03  0.18039957800E+03 0.  1.
</event>
<event>
 4   0  0.6712789E-04  0.2236068E+02  0.7957747E-01  0.1516063E+00
      -11   -1    0    0    0    0  0.00000000000E+00  0.00000000000E+00  0.50000000000E+03  0.50000000000E+03  0.00000000000E+00 0.  1.
       11   -1    0    0    0    0 -0.00000000000E+00 -0.00000000000E+00 -0.50000000000E+03  0.50000000000E+03  0.00000000000E+00 0. -1.
  1000024    1    1    2    0    0  0.21981129788E+01  0.20291464577E+03  0.41985331616E+03  0.50000000000E+03  0.18039957800E+03 0.  1.
 -1000024    1    1    2    0    0 -0.21981129788E+01 -0.20291464577E+03 -0.41985331616E+03  0.50000000000E+03  0.18039957800E+03 0.  1.
</event>
<event>
 4   0  0.6712789E-04  0.2236068E+02  0.7957747E-01  0.1516063E+00
      -11   -1    0    0    0    0  0.00000000000E+00  0.00000000000E+00  0.50000000000E+03  0.50000000000E+03  0.00000000000E+00 0.  1.
       11   -1    0    0    0    0 -0.00000000000E+00 -0.00000000000E+00 -0.50000000000E+03  0.50000000000E+03  0.00000000000E+00 0. -1.
  1000024    1    1    2    0    0 -0.40931876117E+03 -0.15474545679E+03  0.16114585820E+03  0.50000000000E+03  0.18039957800E+03 0.  1.
 -1000024    1    1    2    0    0  0.40931876117E+03  0.15474545679E+03 -0.16114585820E+03  0.50000000000E+03  0.18039957800E+03 0. -1.
</event>
<event>
 4   0  0.1092222E-03  0.2236068E+02  0.7957747E-01  0.1516063E+00
      -11   -1    0    0    0    0  0.00000000000E+00  0.00000000000E+00  0.50000000000E+03  0.50000000000E+03  0.00000000000E+00 0.  1.
       11   -1    0    0    0    0 -0.00000000000E+00 -0.00000000000E+00 -0.50000000000E+03  0.50000000000E+03  0.00000000000E+00 0. -1.
  1000024    1    1    2    0    0 -0.36694202353E+02  0.46338407129E+03  0.37211963761E+02  0.50000000000E+03  0.18039957800E+03 0.  1.
 -1000024    1    1    2    0    0  0.36694202353E+02 -0.46338407129E+03 -0.37211963761E+02  0.50000000000E+03  0.18039957800E+03 0. -1.
</event>
<event>
 4   0  0.1092222E-03  0.2236068E+02  0.7957747E-01  0.1516063E+00
      -11   -1    0    0    0    0  0.00000000000E+00  0.00000000000E+00  0.50000000000E+03  0.50000000000E+03  0.00000000000E+00 0.  1.
       11   -1    0    0    0    0 -0.00000000000E+00 -0.00000000000E+00 -0.50000000000E+03  0.50000000000E+03  0.00000000000E+00 0. -1.
  1000024    1    1    2    0    0 -0.36763708736E+01  0.37189482933E+03  0.28131248189E+03  0.50000000000E+03  0.18039957800E+03 0.  1.
 -1000024    1    1    2    0    0  0.36763708736E+01 -0.37189482933E+03 -0.28131248189E+03  0.50000000000E+03  0.18039957800E+03 0. -1.
</event>
<event>
 4   0  0.7366543E-04  0.2236068E+02  0.7957747E-01  0.1516063E+00
      -11   -1    0    0    0    0  0.00000000000E+00  0.00000000000E+00  0.50000000000E+03  0.50000000000E+03  0.00000000000E+00 0.  1.
       11   -1    0    0    0    0 -0.00000000000E+00 -0.00000000000E+00 -0.50000000000E+03  0.50000000000E+03  0.00000000000E+00 0. -1.
  1000024    1    1    2    0    0  0.21427112478E+03 -0.35463176143E+03  0.21396306020E+03  0.50000000000E+03  0.18039957800E+03 0.  1.
 -1000024    1    1    2    0    0 -0.21427112478E+03  0.35463176143E+03 -0.21396306020E+03  0.50000000000E+03  0.18039957800E+03 0. -1.
</event>
<event>
 4   0  0.6712789E-04  0.2236068E+02  0.7957747E-01  0.1516063E+00
      -11   -1    0    0    0    0  0.00000000000E+00  0.00000000000E+00  0.50000000000E+03  0.50000000000E+03  0.00000000000E+00 0.  1.
       11   -1    0    0    0    0 -0.00000000000E+00 -0.00000000000E+00 -0.50000000000E+03  0.50000000000E+03  0.00000000000E+00 0. -1.
  1000024    1    1    2    0    0 -0.11866317455E+03 -0.12806058590E+03  0.43240667155E+03  0.50000000000E+03  0.18039957800E+03 0. -1.
 -1000024    1    1    2    0    0  0.11866317455E+03  0.12806058590E+03 -0.43240667155E+03  0.50000000000E+03  0.18039957800E+03 0. -1.
</event>
<event>
 4   0  0.1092222E-03  0.2236068E+02  0.7957747E-01  0.1516063E+00
      -11   -1    0    0    0    0  0.00000000000E+00  0.00000000000E+00  0.50000000000E+03  0.50000000000E+03  0.00000000000E+00 0.  1.
       11   -1    0    0    0    0 -0.00000000000E+00 -0.00000000000E+00 -0.50000000000E+03  0.50000000000E+03  0.00000000000E+00 0. -1.
  1000024    1    1    2    0    0  0.19790714963E+02  0.36102351019E+03  0.29449336996E+03  0.50000000000E+03  0.18039957800E+03 0.  1.
 -1000024    1    1    2    0    0 -0.19790714963E+02 -0.36102351019E+03 -0.29449336996E+03  0.50000000000E+03  0.18039957800E+03 0. -1.
</event>
<event>
 4   0  0.7366543E-04  0.2236068E+02  0.7957747E-01  0.1516063E+00
      -11   -1    0    0    0    0  0.00000000000E+00  0.00000000000E+00  0.50000000000E+03  0.50000000000E+03  0.00000000000E+00 0.  1.
       11   -1    0    0    0    0 -0.00000000000E+00 -0.00000000000E+00 -0.50000000000E+03  0.50000000000E+03  0.00000000000E+00 0. -1.
  1000024    1    1    2    0    0 -0.12381697817E+03 -0.39550388745E+03 -0.21378031524E+03  0.50000000000E+03  0.18039957800E+03 0. -1.
 -1000024    1    1    2    0    0  0.12381697817E+03  0.39550388745E+03  0.21378031524E+03  0.50000000000E+03  0.18039957800E+03 0.  1.
</event>
<event>
 4   0  0.1092222E-03  0.2236068E+02  0.7957747E-01  0.1516063E+00
      -11   -1    0    0    0    0  0.00000000000E+00  0.00000000000E+00  0.50000000000E+03  0.50000000000E+03  0.00000000000E+00 0.  1.
       11   -1    0    0    0    0 -0.00000000000E+00 -0.00000000000E+00 -0.50000000000E+03  0.50000000000E+03  0.00000000000E+00 0. -1.
  1000024    1    1    2    0    0  0.14360405878E+03 -0.43828521726E+03  0.68847185070E+02  0.50000000000E+03  0.18039957800E+03 0.  1.
 -1000024    1    1    2    0    0 -0.14360405878E+03  0.43828521726E+03 -0.68847185070E+02  0.50000000000E+03  0.18039957800E+03 0. -1.
</event>
<event>
 4   0  0.1092222E-03  0.2236068E+02  0.7957747E-01  0.1516063E+00
      -11   -1    0    0    0    0  0.00000000000E+00  0.00000000000E+00  0.50000000000E+03  0.50000000000E+03  0.00000000000E+00 0.  1.
       11   -1    0    0    0    0 -0.00000000000E+00 -0.00000000000E+00 -0.50000000000E+03  0.50000000000E+03  0.00000000000E+00 0. -1.
  1000024    1    1    2    0    0  0.21724476265E+03 -0.15818775843E+03  0.38110016851E+03  0.50000000000E+03  0.18039957800E+03 0. -1.
 -1000024    1    1    2    0    0 -0.21724476265E+03  0.15818775843E+03 -0.38110016851E+03  0.50000000000E+03  0.18039957800E+03 0.  1.
</event>
<event>
 4   0  0.7366543E-04  0.2236068E+02  0.7957747E-01  0.1516063E+00
      -11   -1    0    0    0    0  0.00000000000E+00  0.00000000000E+00  0.50000000000E+03  0.50000000000E+03  0.00000000000E+00 0.  1.
       11   -1    0    0    0    0 -0.00000000000E+00 -0.00000000000E+00 -0.50000000000E+03  0.50000000000E+03  0.00000000000E+00 0. -1.
  1000024    1    1    2    0    0  0.19790144329E+03  0.98855082694E+02  0.41051027226E+03  0.50000000000E+03  0.18039957800E+03 0. -1.
 -1000024    1    1    2    0    0 -0.19790144329E+03 -0.98855082694E+02 -0.41051027226E+03  0.50000000000E+03  0.18039957800E+03 0.  1.
</event>
<event>
 4   0  0.7366543E-04  0.2236068E+02  0.7957747E-01  0.1516063E+00
      -11   -1    0    0    0    0  0.00000000000E+00  0.00000000000E+00  0.50000000000E+03  0.50000000000E+03  0.00000000000E+00 0.  1.
       11   -1    0    0    0    0 -0.00000000000E+00 -0.00000000000E+00 -0.50000000000E+03  0.50000000000E+03  0.00000000000E+00 0. -1.
  1000024    1    1    2    0    0 -0.34049853348E+03  0.28622741224E+03 -0.13996645825E+03  0.50000000000E+03  0.18039957800E+03 0.  1.
 -1000024    1    1    2    0    0  0.34049853348E+03 -0.28622741224E+03  0.13996645825E+03  0.50000000000E+03  0.18039957800E+03 0. -1.
</event>
<event>
 4   0  0.7366543E-04  0.2236068E+02  0.7957747E-01  0.1516063E+00
      -11   -1    0    0    0    0  0.00000000000E+00  0.00000000000E+00  0.50000000000E+03  0.50000000000E+03  0.00000000000E+00 0.  1.
       11   -1    0    0    0    0 -0.00000000000E+00 -0.00000000000E+00 -0.50000000000E+03  0.50000000000E+03  0.00000000000E+00 0. -1.
  1000024    1    1    2    0    0 -0.12724986761E+03  0.21620802675E+03  0.39308720740E+03  0.50000000000E+03  0.18039957800E+03 0. -1.
 -1000024    1    1    2    0    0  0.12724986761E+03 -0.21620802675E+03 -0.39308720740E+03  0.50000000000E+03  0.18039957800E+03 0. -1.
</event>
<event>
 4   0  0.1092222E-03  0.2236068E+02  0.7957747E-01  0.1516063E+00
      -11   -1    0    0    0    0  0.00000000000E+00  0.00000000000E+00  0.50000000000E+03  0.50000000000E+03  0.00000000000E+00 0.  1.
       11   -1    0    0    0    0 -0.00000000000E+00 -0.00000000000E+00 -0.50000000000E+03  0.50000000000E+03  0.00000000000E+00 0. -1.
  1000024    1    1    2    0    0  0.30405457166E+03 -0.21123217807E+03  0.28352738256E+03  0.50000000000E+03  0.18039957800E+03 0. -1.
 -1000024    1    1    2    0    0 -0.30405457166E+03  0.21123217807E+03 -0.28352738256E+03  0.50000000000E+03  0.18039957800E+03 0.  1.
</event>
<event>
 4   0  0.1092222E-03  0.2236068E+02  0.7957747E-01  0.1516063E+00
      -11   -1    0    0    0    0  0.00000000000E+00  0.00000000000E+00  0.50000000000E+03  0.50000000000E+03  0.00000000000E+00 0.  1.
       11   -1    0    0    0    0 -0.00000000000E+00 -0.00000000000E+00 -0.50000000000E+03  0.50000000000E+03  0.00000000000E+00 0. -1.
  1000024    1    1    2    0    0  0.44932620975E+03 -0.12473164405E+03  0.19915967478E+01  0.50000000000E+03  0.18039957800E+03 0. -1.
 -1000024    1    1    2    0    0 -0.44932620975E+03  0.12473164405E+03 -0.19915967478E+01  0.50000000000E+03  0.18039957800E+03 0.  1.
</event>
<event>
 4   0  0.1092222E-03  0.2236068E+02  0.7957747E-01  0.1516063E+00
      -11   -1    0    0    0    0  0.00000000000E+00  0.00000000000E+00  0.50000000000E+03  0.50000000000E+03  0.00000000000E+00 0.  1.
       11   -1    0    0    0    0 -0.00000000000E+00 -0.00000000000E+00 -0.50000000000E+03  0.50000000000E+03  0.00000000000E+00 0. -1.
  1000024    1    1    2    0    0  0.19680205058E+03  0.41845926456E+03 -0.60139746007E+02  0.50000000000E+03  0.18039957800E+03 0.  1.
 -1000024    1    1    2    0    0 -0.19680205058E+03 -0.41845926456E+03  0.60139746007E+02  0.50000000000E+03  0.18039957800E+03 0. -1.
</event>
<event>
 4   0  0.6712789E-04  0.2236068E+02  0.7957747E-01  0.1516063E+00
      -11   -1    0    0    0    0  0.00000000000E+00  0.00000000000E+00  0.50000000000E+03  0.50000000000E+03  0.00000000000E+00 0.  1.
       11   -1    0    0    0    0 -0.00000000000E+00 -0.00000000000E+00 -0.50000000000E+03  0.50000000000E+03  0.00000000000E+00 0. -1.
  1000024    1    1    2    0    0  0.20995026632E+03 -0.35048210384E+03  0.22480919203E+03  0.50000000000E+03  0.18039957800E+03 0.  1.
 -1000024    1    1    2    0    0 -0.20995026632E+03  0.35048210384E+03 -0.22480919203E+03  0.50000000000E+03  0.18039957800E+03 0. -1.
</event>
<event>
 4   0  0.7366543E-04  0.2236068E+02  0.7957747E-01  0.1516063E+00
      -11   -1    0    0    0    0  0.00000000000E+00  0.00000000000E+00  0.50000000000E+03  0.50000000000E+03  0.00000000000E+00 0.  1.
       11   -1    0    0    0    0 -0.00000000000E+00 -0.00000000000E+00 -0.50000000000E+03  0.50000000000E+03  0.00000000000E+00 0. -1.
  1000024    1    1    2    0    0 -0.26552946724E+03 -0.44063509089E+02  0.38079981808E+03  0.50000000000E+03  0.18039957800E+03 0.  1.
 -1000024    1    1    2    0    0  0.26552946724E+03  0.44063509089E+02 -0.38079981808E+03  0.50000000000E+03  0.18039957800E+03 0. -1.
</event>
<event>
 4   0  0.1092222E-03  0.2236068E+02  0.7957747E-01  0.1516063E+00
      -11   -1    0    0    0    0  0.00000000000E+00  0.00000000000E+00  0.50000000000E+03  0.50000000000E+03  0.00000000000E+00 0.  1.
       11   -1    0    0    0    0 -0.00000000000E+00 -0.00000000000E+00 -0.50000000000E+03  0.50000000000E+03  0.00000000000E+00 0. -1.
  1000024    1    1    2    0    0  0.38996833746E+03 -0.21952023747E+03  0.13111656406E+03  0.50000000000E+03  0.18039957800E+03 0. -1.
 -1000024    1    1    2    0    0 -0.38996833746E+03  0.21952023747E+03 -0.13111656406E+03  0.50000000000E+03  0.18039957800E+03 0.  1.
</event>
<event>
 4   0  0.7366543E-04  0.2236068E+02  0.7957747E-01  0.1516063E+00
      -11   -1    0    0    0    0  0.00000000000E+00  0.00000000000E+00  0.50000000000E+03  0.50000000000E+03  0.00000000000E+00 0.  1.
       11   -1    0    0    0    0 -0.00000000000E+00 -0.00000000000E+00 -0.50000000000E+03  0.50000000000E+03  0.00000000000E+00 0. -1.
  1000024    1    1    2    0    0 -0.41502561613E+03  0.16415176577E+03  0.13514410091E+03  0.50000000000E+03  0.18039957800E+03 0.  1.
 -1000024    1    1    2    0    0  0.41502561613E+03 -0.16415176577E+03 -0.13514410091E+03  0.50000000000E+03  0.18039957800E+03 0. -1.
</event>
<event>
 4   0  0.1092222E-03  0.2236068E+02  0.7957747E-01  0.1516063E+00
      -11   -1    0    0    0    0  0.00000000000E+00  0.00000000000E+00  0.50000000000E+03  0.50000000000E+03  0.00000000000E+00 0.  1.
       11   -1    0    0    0    0 -0.00000000000E+00 -0.00000000000E+00 -0.50000000000E+03  0.50000000000E+03  0.00000000000E+00 0. -1.
  1000024    1    1    2    0    0  0.19534310330E+03 -0.11630490320E+03  0.40714890856E+03  0.50000000000E+03  0.18039957800E+03 0. -1.
 -1000024    1    1    2    0    0 -0.19534310330E+03  0.11630490320E+03 -0.40714890856E+03  0.50000000000E+03  0.18039957800E+03 0.  1.
</event>
<event>
 4   0  0.7366543E-04  0.2236068E+02  0.7957747E-01  0.1516063E+00
      -11   -1    0    0    0    0  0.00000000000E+00  0.00000000000E+00  0.50000000000E+03  0.50000000000E+03  0.00000000000E+00 0.  1.
       11   -1    0    0    0    0 -0.00000000000E+00 -0.00000000000E+00 -0.50000000000E+03  0.50000000000E+03  0.00000000000E+00 0. -1.
  1000024    1    1    2    0    0 -0.99372772294E+02  0.40712377963E+03  0.20452694796E+03  0.50000000000E+03  0.18039957800E+03 0.  1.
 -1000024    1    1    2    0    0  0.99372772294E+02 -0.40712377963E+03 -0.20452694796E+03  0.50000000000E+03  0.18039957800E+03 0. -1.
</event>
<event>
 4   0  0.1092222E-03  0.2236068E+02  0.7957747E-01  0.1516063E+00
      -11   -1    0    0    0    0  0.00000000000E+00  0.00000000000E+00  0.50000000000E+03  0.50000000000E+03  0.00000000000E+00 0.  1.
       11   -1    0    0    0    0 -0.00000000000E+00 -0.00000000000E+00 -0.50000000000E+03  0.50000000000E+03  0.00000000000E+00 0. -1.
  1000024    1    1    2    0    0  0.33501478333E+03 -0.26646059131E+03  0.18498605484E+03  0.50000000000E+03  0.18039957800E+03 0.  1.
 -1000024    1    1    2    0    0 -0.33501478333E+03  0.26646059131E+03 -0.18498605484E+03  0.50000000000E+03  0.18039957800E+03 0. -1.
</event>
<event>
 4   0  0.7366543E-04  0.2236068E+02  0.7957747E-01  0.1516063E+00
      -11   -1    0    0    0    0  0.00000000000E+00  0.00000000000E+00  0.50000000000E+03  0.50000000000E+03  0.00000000000E+00 0.  1.
       11   -1    0    0    0    0 -0.00000000000E+00 -0.00000000000E+00 -0.50000000000E+03  0.50000000000E+03  0.00000000000E+00 0. -1.
  1000024    1    1    2    0    0 -0.28275701485E+03  0.16264462861E+03  0.33324343594E+03  0.50000000000E+03  0.18039957800E+03 0.  1.
 -1000024    1    1    2    0    0  0.28275701485E+03 -0.16264462861E+03 -0.33324343594E+03  0.50000000000E+03  0.18039957800E+03 0. -1.
</event>
<event>
 4   0  0.7366543E-04  0.2236068E+02  0.7957747E-01  0.1516063E+00
      -11   -1    0    0    0    0  0.00000000000E+00  0.00000000000E+00  0.50000000000E+03  0.50000000000E+03  0.00000000000E+00 0.  1.
       11   -1    0    0    0    0 -0.00000000000E+00 -0.00000000000E+00 -0.50000000000E+03  0.50000000000E+03  0.00000000000E+00 0. -1.
  1000024    1    1    2    0    0 -0.18913106082E+03  0.34403236251E+03  0.25164889755E+03  0.50000000000E+03  0.18039957800E+03 0. -1.
 -1000024    1    1    2    0    0  0.18913106082E+03 -0.34403236251E+03 -0.25164889755E+03  0.50000000000E+03  0.18039957800E+03 0.  1.
</event>
<event>
 4   0  0.7366543E-04  0.2236068E+02  0.7957747E-01  0.1516063E+00
      -11   -1    0    0    0    0  0.00000000000E+00  0.00000000000E+00  0.50000000000E+03  0.50000000000E+03  0.00000000000E+00 0.  1.
       11   -1    0    0    0    0 -0.00000000000E+00 -0.00000000000E+00 -0.50000000000E+03  0.50000000000E+03  0.00000000000E+00 0. -1.
  1000024    1    1    2    0    0  0.38720344068E+03 -0.24935787155E+03 -0.73144648975E+02  0.50000000000E+03  0.18039957800E+03 0.  1.
 -1000024    1    1    2    0    0 -0.38720344068E+03  0.24935787155E+03  0.73144648975E+02  0.50000000000E+03  0.18039957800E+03 0. -1.
</event>
<event>
 4   0  0.1092222E-03  0.2236068E+02  0.7957747E-01  0.1516063E+00
      -11   -1    0    0    0    0  0.00000000000E+00  0.00000000000E+00  0.50000000000E+03  0.50000000000E+03  0.00000000000E+00 0.  1.
       11   -1    0    0    0    0 -0.00000000000E+00 -0.00000000000E+00 -0.50000000000E+03  0.50000000000E+03  0.00000000000E+00 0. -1.
  1000024    1    1    2    0    0 -0.34245641700E+03  0.28143953541E+03  0.14481499447E+03  0.50000000000E+03  0.18039957800E+03 0. -1.
 -1000024    1    1    2    0    0  0.34245641700E+03 -0.28143953541E+03 -0.14481499447E+03  0.50000000000E+03  0.18039957800E+03 0. -1.
</event>
<event>
 4   0  0.1092222E-03  0.2236068E+02  0.7957747E-01  0.1516063E+00
      -11   -1    0    0    0    0  0.00000000000E+00  0.00000000000E+00  0.50000000000E+03  0.50000000000E+03  0.00000000000E+00 0.  1.
       11   -1    0    0    0    0 -0.00000000000E+00 -0.00000000000E+00 -0.50000000000E+03  0.50000000000E+03  0.00000000000E+00 0. -1.
  1000024    1    1    2    0    0  0.20711938343E+03 -0.39669818949E+03  0.13110339325E+03  0.50000000000E+03  0.18039957800E+03 0. -1.
 -1000024    1    1    2    0    0 -0.20711938343E+03  0.39669818949E+03 -0.13110339325E+03  0.50000000000E+03  0.18039957800E+03 0.  1.
</event>
<event>
 4   0  0.1092222E-03  0.2236068E+02  0.7957747E-01  0.1516063E+00
      -11   -1    0    0    0    0  0.00000000000E+00  0.00000000000E+00  0.50000000000E+03  0.50000000000E+03  0.00000000000E+00 0.  1.
       11   -1    0    0    0    0 -0.00000000000E+00 -0.00000000000E+00 -0.50000000000E+03  0.50000000000E+03  0.00000000000E+00 0. -1.
  1000024    1    1    2    0    0  0.45874681850E+03  0.83693822009E+02  0.16410158486E+01  0.50000000000E+03  0.18039957800E+03 0.  1.
 -1000024    1    1    2    0    0 -0.45874681850E+03 -0.83693822009E+02 -0.16410158486E+01  0.50000000000E+03  0.18039957800E+03 0. -1.
</event>
<event>
 4   0  0.6712789E-04  0.2236068E+02  0.7957747E-01  0.1516063E+00
      -11   -1    0    0    0    0  0.00000000000E+00  0.00000000000E+00  0.50000000000E+03  0.50000000000E+03  0.00000000000E+00 0.  1.
       11   -1    0    0    0    0 -0.00000000000E+00 -0.00000000000E+00 -0.50000000000E+03  0.50000000000E+03  0.00000000000E+00 0. -1.
  1000024    1    1    2    0    0 -0.25065408632E+03  0.26949844535E+03 -0.28635486590E+03  0.50000000000E+03  0.18039957800E+03 0.  1.
 -1000024    1    1    2    0    0  0.25065408632E+03 -0.26949844535E+03  0.28635486590E+03  0.50000000000E+03  0.18039957800E+03 0. -1.
</event>
<event>
 4   0  0.6712789E-04  0.2236068E+02  0.7957747E-01  0.1516063E+00
      -11   -1    0    0    0    0  0.00000000000E+00  0.00000000000E+00  0.50000000000E+03  0.50000000000E+03  0.00000000000E+00 0.  1.
       11   -1    0    0    0    0 -0.00000000000E+00 -0.00000000000E+00 -0.50000000000E+03  0.50000000000E+03  0.00000000000E+00 0. -1.
  1000024    1    1    2    0    0 -0.36731078820E+03  0.28020467101E+03  0.63435947814E+02  0.50000000000E+03  0.18039957800E+03 0.  1.
 -1000024    1    1    2    0    0  0.36731078820E+03 -0.28020467101E+03 -0.63435947814E+02  0.50000000000E+03  0.18039957800E+03 0. -1.
</event>
<event>
 4   0  0.1092222E-03  0.2236068E+02  0.7957747E-01  0.1516063E+00
      -11   -1    0    0    0    0  0.00000000000E+00  0.00000000000E+00  0.50000000000E+03  0.50000000000E+03  0.00000000000E+00 0.  1.
       11   -1    0    0    0    0 -0.00000000000E+00 -0.00000000000E+00 -0.50000000000E+03  0.50000000000E+03  0.00000000000E+00 0. -1.
  1000024    1    1    2    0    0 -0.12460453537E+03 -0.39267973566E+03  0.21847729224E+03  0.50000000000E+03  0.18039957800E+03 0.  1.
 -1000024    1    1    2    0    0  0.12460453537E+03  0.39267973566E+03 -0.21847729224E+03  0.50000000000E+03  0.18039957800E+03 0. -1.
</event>
<event>
 4   0  0.1092222E-03  0.2236068E+02  0.7957747E-01  0.1516063E+00
      -11   -1    0    0    0    0  0.00000000000E+00  0.00000000000E+00  0.50000000000E+03  0.50000000000E+03  0.00000000000E+00 0.  1.
       11   -1    0    0    0    0 -0.00000000000E+00 -0.00000000000E+00 -0.50000000000E+03  0.50000000000E+03  0.00000000000E+00 0. -1.
  1000024    1    1    2    0    0  0.23748288785E+03  0.13767942182E+03  0.37696451695E+03  0.50000000000E+03  0.18039957800E+03 0. -1.
 -1000024    1    1    2    0    0 -0.23748288785E+03 -0.13767942182E+03 -0.37696451695E+03  0.50000000000E+03  0.18039957800E+03 0.  1.
</event>
<event>
 4   0  0.7366543E-04  0.2236068E+02  0.7957747E-01  0.1516063E+00
      -11   -1    0    0    0    0  0.00000000000E+00  0.00000000000E+00  0.50000000000E+03  0.50000000000E+03  0.00000000000E+00 0.  1.
       11   -1    0    0    0    0 -0.00000000000E+00 -0.00000000000E+00 -0.50000000000E+03  0.50000000000E+03  0.00000000000E+00 0. -1.
  1000024    1    1    2    0    0  0.11041228246E+03  0.44954032738E+03 -0.56379200064E+02  0.50000000000E+03  0.18039957800E+03 0.  1.
 -1000024    1    1    2    0    0 -0.11041228246E+03 -0.44954032738E+03  0.56379200064E+02  0.50000000000E+03  0.18039957800E+03 0. -1.
</event>
<event>
 4   0  0.1092222E-03  0.2236068E+02  0.7957747E-01  0.1516063E+00
      -11   -1    0    0    0    0  0.00000000000E+00  0.00000000000E+00  0.50000000000E+03  0.50000000000E+03  0.00000000000E+00 0.  1.
       11   -1    0    0    0    0 -0.00000000000E+00 -0.00000000000E+00 -0.50000000000E+03  0.50000000000E+03  0.00000000000E+00 0. -1.
  1000024    1    1    2    0    0  0.26518195203E+03 -0.23488146584E+03  0.30325768182E+03  0.50000000000E+03  0.18039957800E+03 0. -1.
 -1000024    1    1    2    0    0 -0.26518195203E+03  0.23488146584E+03 -0.30325768182E+03  0.50000000000E+03  0.18039957800E+03 0.  1.
</event>
<event>
 4   0  0.6712789E-04  0.2236068E+02  0.7957747E-01  0.1516063E+00
      -11   -1    0    0    0    0  0.00000000000E+00  0.00000000000E+00  0.50000000000E+03  0.50000000000E+03  0.00000000000E+00 0.  1.
       11   -1    0    0    0    0 -0.00000000000E+00 -0.00000000000E+00 -0.50000000000E+03  0.50000000000E+03  0.00000000000E+00 0. -1.
  1000024    1    1    2    0    0 -0.23618765999E+03 -0.29078635211E+02  0.40103093958E+03  0.50000000000E+03  0.18039957800E+03 0. -1.
 -1000024    1    1    2    0    0  0.23618765999E+03  0.29078635211E+02 -0.40103093958E+03  0.50000000000E+03  0.18039957800E+03 0.  1.
</event>
<event>
 4   0  0.1092222E-03  0.2236068E+02  0.7957747E-01  0.1516063E+00
      -11   -1    0    0    0    0  0.00000000000E+00  0.00000000000E+00  0.50000000000E+03  0.50000000000E+03  0.00000000000E+00 0.  1.
       11   -1    0    0    0    0 -0.00000000000E+00 -0.00000000000E+00 -0.50000000000E+03  0.50000000000E+03  0.00000000000E+00 0. -1.
  1000024    1    1    2    0    0  0.32753784566E+03 -0.33144640096E+03 -0.17839148163E+02  0.50000000000E+03  0.18039957800E+03 0.  1.
 -1000024    1    1    2    0    0 -0.32753784566E+03  0.33144640096E+03  0.17839148163E+02  0.50000000000E+03  0.18039957800E+03 0. -1.
</event>
<event>
 4   0  0.6712789E-04  0.2236068E+02  0.7957747E-01  0.1516063E+00
      -11   -1    0    0    0    0  0.00000000000E+00  0.00000000000E+00  0.50000000000E+03  0.50000000000E+03  0.00000000000E+00 0.  1.
       11   -1    0    0    0    0 -0.00000000000E+00 -0.00000000000E+00 -0.50000000000E+03  0.50000000000E+03  0.00000000000E+00 0. -1.
  1000024    1    1    2    0    0 -0.16387274674E+03  0.36925853868E+03  0.23291596499E+03  0.50000000000E+03  0.18039957800E+03 0.  1.
 -1000024    1    1    2    0    0  0.16387274674E+03 -0.36925853868E+03 -0.23291596499E+03  0.50000000000E+03  0.18039957800E+03 0. -1.
</event>
<event>
 4   0  0.1092222E-03  0.2236068E+02  0.7957747E-01  0.1516063E+00
      -11   -1    0    0    0    0  0.00000000000E+00  0.00000000000E+00  0.50000000000E+03  0.50000000000E+03  0.00000000000E+00 0.  1.
       11   -1    0    0    0    0 -0.00000000000E+00 -0.00000000000E+00 -0.50000000000E+03  0.50000000000E+03  0.00000000000E+00 0. -1.
  1000024    1    1    2    0    0 -0.20574352322E+03 -0.69103535129E+02  0.41273514067E+03  0.50000000000E+03  0.18039957800E+03 0. -1.
 -1000024    1    1    2    0    0  0.20574352322E+03  0.69103535129E+02 -0.41273514067E+03  0.50000000000E+03  0.18039957800E+03 0. -1.
</event>
<event>
 4   0  0.7366543E-04  0.2236068E+02  0.7957747E-01  0.1516063E+00
      -11   -1    0    0    0    0  0.00000000000E+00  0.00000000000E+00  0.50000000000E+03  0.50000000000E+03  0.00000000000E+00 0.  1.
       11   -1    0    0    0    0 -0.00000000000E+00 -0.00000000000E+00 -0.50000000000E+03  0.50000000000E+03  0.00000000000E+00 0. -1.
  1000024    1    1    2    0    0 -0.70490526000E+02 -0.36864802482E+03  0.27674123617E+03  0.50000000000E+03  0.18039957800E+03 0.  1.
 -1000024    1    1    2    0    0  0.70490526000E+02  0.36864802482E+03 -0.27674123617E+03  0.50000000000E+03  0.18039957800E+03 0.  1.
</event>
<event>
 4   0  0.1092222E-03  0.2236068E+02  0.7957747E-01  0.1516063E+00
      -11   -1    0    0    0    0  0.00000000000E+00  0.00000000000E+00  0.50000000000E+03  0.50000000000E+03  0.00000000000E+00 0.  1.
       11   -1    0    0    0    0 -0.00000000000E+00 -0.00000000000E+00 -0.50000000000E+03  0.50000000000E+03  0.00000000000E+00 0. -1.
  1000024    1    1    2    0    0 -0.44766045857E+03 -0.69925307743E+02  0.11030211889E+03  0.50000000000E+03  0.18039957800E+03 0.  1.
 -1000024    1    1    2    0    0  0.44766045857E+03  0.69925307743E+02 -0.11030211889E+03  0.50000000000E+03  0.18039957800E+03 0. -1.
</event>
<event>
 4   0  0.7366543E-04  0.2236068E+02  0.7957747E-01  0.1516063E+00
      -11   -1    0    0    0    0  0.00000000000E+00  0.00000000000E+00  0.50000000000E+03  0.50000000000E+03  0.00000000000E+00 0.  1.
       11   -1    0    0    0    0 -0.00000000000E+00 -0.00000000000E+00 -0.50000000000E+03  0.50000000000E+03  0.00000000000E+00 0. -1.
  1000024    1    1    2    0    0 -0.32251870442E+03  0.29423444169E+03  0.16390171104E+03  0.50000000000E+03  0.18039957800E+03 0. -1.
 -1000024    1    1    2    0    0  0.32251870442E+03 -0.29423444169E+03 -0.16390171104E+03  0.50000000000E+03  0.18039957800E+03 0.  1.
</event>
<event>
 4   0  0.1092222E-03  0.2236068E+02  0.7957747E-01  0.1516063E+00
      -11   -1    0    0    0    0  0.00000000000E+00  0.00000000000E+00  0.50000000000E+03  0.50000000000E+03  0.00000000000E+00 0.  1.
       11   -1    0    0    0    0 -0.00000000000E+00 -0.00000000000E+00 -0.50000000000E+03  0.50000000000E+03  0.00000000000E+00 0. -1.
  1000024    1    1    2    0    0 -0.20726142601E+02 -0.40478362074E+03  0.23060060635E+03  0.50000000000E+03  0.18039957800E+03 0.  1.
 -1000024    1    1    2    0    0  0.20726142601E+02  0.40478362074E+03 -0.23060060635E+03  0.50000000000E+03  0.18039957800E+03 0. -1.
</event>
<event>
 4   0  0.6712789E-04  0.2236068E+02  0.7957747E-01  0.1516063E+00
      -11   -1    0    0    0    0  0.00000000000E+00  0.00000000000E+00  0.50000000000E+03  0.50000000000E+03  0.00000000000E+00 0.  1.
       11   -1    0    0    0    0 -0.00000000000E+00 -0.00000000000E+00 -0.50000000000E+03  0.50000000000E+03  0.00000000000E+00 0. -1.
  1000024    1    1    2    0    0 -0.22377746407E+02  0.24869904180E+03  0.39383247115E+03  0.50000000000E+03  0.18039957800E+03 0. -1.
 -1000024    1    1    2    0    0  0.22377746407E+02 -0.24869904180E+03 -0.39383247115E+03  0.50000000000E+03  0.18039957800E+03 0.  1.
</event>
<event>
 4   0  0.6712789E-04  0.2236068E+02  0.7957747E-01  0.1516063E+00
      -11   -1    0    0    0    0  0.00000000000E+00  0.00000000000E+00  0.50000000000E+03  0.50000000000E+03  0.00000000000E+00 0.  1.
       11   -1    0    0    0    0 -0.00000000000E+00 -0.00000000000E+00 -0.50000000000E+03  0.50000000000E+03  0.00000000000E+00 0. -1.
  1000024    1    1    2    0    0 -0.90808999195E+02 -0.44697819769E+03  0.97057759654E+02  0.50000000000E+03  0.18039957800E+03 0. -1.
 -1000024    1    1    2    0    0  0.90808999195E+02  0.44697819769E+03 -0.97057759654E+02  0.50000000000E+03  0.18039957800E+03 0.  1.
</event>
<event>
 4   0  0.6712789E-04  0.2236068E+02  0.7957747E-01  0.1516063E+00
      -11   -1    0    0    0    0  0.00000000000E+00  0.00000000000E+00  0.50000000000E+03  0.50000000000E+03  0.00000000000E+00 0.  1.
       11   -1    0    0    0    0 -0.00000000000E+00 -0.00000000000E+00 -0.50000000000E+03  0.50000000000E+03  0.00000000000E+00 0. -1.
  1000024    1    1    2    0    0  0.17198545952E+03  0.20995325373E+03  0.37920525474E+03  0.50000000000E+03  0.18039957800E+03 0.  1.
 -1000024    1    1    2    0    0 -0.17198545952E+03 -0.20995325373E+03 -0.37920525474E+03  0.50000000000E+03  0.18039957800E+03 0.  1.
</event>
<event>
 4   0  0.7366543E-04  0.2236068E+02  0.7957747E-01  0.1516063E+00
      -11   -1    0    0    0    0  0.00000000000E+00  0.00000000000E+00  0.50000000000E+03  0.50000000000E+03  0.00000000000E+00 0.  1.
       11   -1    0    0    0    0 -0.00000000000E+00 -0.00000000000E+00 -0.50000000000E+03  0.50000000000E+03  0.00000000000E+00 0. -1.
  1000024    1    1    2    0    0  0.26110328656E+02  0.34018359618E+03  0.31788262596E+03  0.50000000000E+03  0.18039957800E+03 0.  1.
 -1000024    1    1    2    0    0 -0.26110328656E+02 -0.34018359618E+03 -0.31788262596E+03  0.50000000000E+03  0.18039957800E+03 0. -1.
</event>
<event>
 4   0  0.1092222E-03  0.2236068E+02  0.7957747E-01  0.1516063E+00
      -11   -1    0    0    0    0  0.00000000000E+00  0.00000000000E+00  0.50000000000E+03  0.50000000000E+03  0.00000000000E+00 0.  1.
       11   -1    0    0    0    0 -0.00000000000E+00 -0.00000000000E+00 -0.50000000000E+03  0.50000000000E+03  0.00000000000E+00 0. -1.
  1000024    1    1    2    0    0  0.24361775722E+03 -0.45705740042E+02  0.39499033653E+03  0.50000000000E+03  0.18039957800E+03 0.  1.
 -1000024    1    1    2    0    0 -0.24361775722E+03  0.45705740042E+02 -0.39499033653E+03  0.50000000000E+03  0.18039957800E+03 0. -1.
</event>
<event>
 4   0  0.7366543E-04  0.2236068E+02  0.7957747E-01  0.1516063E+00
      -11   -1    0    0    0    0  0.00000000000E+00  0.00000000000E+00  0.50000000000E+03  0.50000000000E+03  0.00000000000E+00 0.  1.
       11   -1    0    0    0    0 -0.00000000000E+00 -0.00000000000E+00 -0.50000000000E+03  0.50000000000E+03  0.00000000000E+00 0. -1.
  1000024    1    1    2    0    0 -0.17933546889E+03  0.81499241612E+02  0.42267322540E+03  0.50000000000E+03  0.18039957800E+03 0. -1.
 -1000024    1    1    2    0    0  0.17933546889E+03 -0.81499241612E+02 -0.42267322540E+03  0.50000000000E+03  0.18039957800E+03 0. -1.
</event>
<event>
 4   0  0.1092222E-03  0.2236068E+02  0.7957747E-01  0.1516063E+00
      -11   -1    0    0    0    0  0.00000000000E+00  0.00000000000E+00  0.50000000000E+03  0.50000000000E+03  0.00000000000E+00 0.  1.
       11   -1    0    0    0    0 -0.00000000000E+00 -0.00000000000E+00 -0.50000000000E+03  0.50000000000E+03  0.00000000000E+00 0. -1.
  1000024    1    1    2    0    0  0.30508768901E+03 -0.47946792224E+01  0.35263934171E+03  0.50000000000E+03  0.18039957800E+03 0.  1.
 -1000024    1    1    2    0    0 -0.30508768901E+03  0.47946792224E+01 -0.35263934171E+03  0.50000000000E+03  0.18039957800E+03 0. -1.
</event>
<event>
 4   0  0.7366543E-04  0.2236068E+02  0.7957747E-01  0.1516063E+00
      -11   -1    0    0    0    0  0.00000000000E+00  0.00000000000E+00  0.50000000000E+03  0.50000000000E+03  0.00000000000E+00 0.  1.
       11   -1    0    0    0    0 -0.00000000000E+00 -0.00000000000E+00 -0.50000000000E+03  0.50000000000E+03  0.00000000000E+00 0. -1.
  1000024    1    1    2    0    0  0.24830228490E+03 -0.16907173402E+03  0.35667452436E+03  0.50000000000E+03  0.18039957800E+03 0. -1.
 -1000024    1    1    2    0    0 -0.24830228490E+03  0.16907173402E+03 -0.35667452436E+03  0.50000000000E+03  0.18039957800E+03 0.  1.
</event>
<event>
 4   0  0.6712789E-04  0.2236068E+02  0.7957747E-01  0.1516063E+00
      -11   -1    0    0    0    0  0.00000000000E+00  0.00000000000E+00  0.50000000000E+03  0.50000000000E+03  0.00000000000E+00 0.  1.
       11   -1    0    0    0    0 -0.00000000000E+00 -0.00000000000E+00 -0.50000000000E+03  0.50000000000E+03  0.00000000000E+00 0. -1.
  1000024    1    1    2    0    0 -0.29213858880E+03 -0.34364688282E+03 -0.11839703170E+03  0.50000000000E+03  0.18039957800E+03 0. -1.
 -1000024    1    1    2    0    0  0.29213858880E+03  0.34364688282E+03  0.11839703170E+03  0.50000000000E+03  0.18039957800E+03 0.  1.
</event>
<event>
 4   0  0.7366543E-04  0.2236068E+02  0.7957747E-01  0.1516063E+00
      -11   -1    0    0    0    0  0.00000000000E+00  0.00000000000E+00  0.50000000000E+03  0.50000000000E+03  0.00000000000E+00 0.  1.
       11   -1    0    0    0    0 -0.00000000000E+00 -0.00000000000E+00 -0.50000000000E+03  0.50000000000E+03  0.00000000000E+00 0. -1.
  1000024    1    1    2    0    0 -0.17931772870E+03  0.40893174293E+03  0.13444691911E+03  0.50000000000E+03  0.18039957800E+03 0. -1.
 -1000024    1    1    2    0    0  0.17931772870E+03 -0.40893174293E+03 -0.13444691911E+03  0.50000000000E+03  0.18039957800E+03 0.  1.
</event>
<event>
 4   0  0.6712789E-04  0.2236068E+02  0.7957747E-01  0.1516063E+00
      -11   -1    0    0    0    0  0.00000000000E+00  0.00000000000E+00  0.50000000000E+03  0.50000000000E+03  0.00000000000E+00 0.  1.
       11   -1    0    0    0    0 -0.00000000000E+00 -0.00000000000E+00 -0.50000000000E+03  0.50000000000E+03  0.00000000000E+00 0. -1.
  1000024    1    1    2    0    0 -0.31756295028E+03 -0.34121948947E+03  0.13380017512E+02  0.50000000000E+03  0.18039957800E+03 0. -1.
 -1000024    1    1    2    0    0  0.31756295028E+03  0.34121948947E+03 -0.13380017512E+02  0.50000000000E+03  0.18039957800E+03 0.  1.
</event>
<event>
 4   0  0.1092222E-03  0.2236068E+02  0.7957747E-01  0.1516063E+00
      -11   -1    0    0    0    0  0.00000000000E+00  0.00000000000E+00  0.50000000000E+03  0.50000000000E+03  0.00000000000E+00 0.  1.
       11   -1    0    0    0    0 -0.00000000000E+00 -0.00000000000E+00 -0.50000000000E+03  0.50000000000E+03  0.00000000000E+00 0. -1.
  1000024    1    1    2    0    0  0.12568385178E+03  0.42239204136E+03  0.15246155271E+03  0.50000000000E+03  0.18039957800E+03 0.  1.
 -1000024    1    1    2    0    0 -0.12568385178E+03 -0.42239204136E+03 -0.15246155271E+03  0.50000000000E+03  0.18039957800E+03 0. -1.
</event>
<event>
 4   0  0.1092222E-03  0.2236068E+02  0.7957747E-01  0.1516063E+00
      -11   -1    0    0    0    0  0.00000000000E+00  0.00000000000E+00  0.50000000000E+03  0.50000000000E+03  0.00000000000E+00 0.  1.
       11   -1    0    0    0    0 -0.00000000000E+00 -0.00000000000E+00 -0.50000000000E+03  0.50000000000E+03  0.00000000000E+00 0. -1.
  1000024    1    1    2    0    0 -0.17657444652E+03  0.23094580335E+03  0.36461142742E+03  0.50000000000E+03  0.18039957800E+03 0. -1.
 -1000024    1    1    2    0    0  0.17657444652E+03 -0.23094580335E+03 -0.36461142742E+03  0.50000000000E+03  0.18039957800E+03 0.  1.
</event>
<event>
 4   0  0.7366543E-04  0.2236068E+02  0.7957747E-01  0.1516063E+00
      -11   -1    0    0    0    0  0.00000000000E+00  0.00000000000E+00  0.50000000000E+03  0.50000000000E+03  0.00000000000E+00 0.  1.
       11   -1    0    0    0    0 -0.00000000000E+00 -0.00000000000E+00 -0.50000000000E+03  0.50000000000E+03  0.00000000000E+00 0. -1.
  1000024    1    1    2    0    0 -0.40706723694E+02 -0.14734444259E+03  0.44055484351E+03  0.50000000000E+03  0.18039957800E+03 0. -1.
 -1000024    1    1    2    0    0  0.40706723694E+02  0.14734444259E+03 -0.44055484351E+03  0.50000000000E+03  0.18039957800E+03 0. -1.
</event>
<event>
 4   0  0.6712789E-04  0.2236068E+02  0.7957747E-01  0.1516063E+00
      -11   -1    0    0    0    0  0.00000000000E+00  0.00000000000E+00  0.50000000000E+03  0.50000000000E+03  0.00000000000E+00 0.  1.
       11   -1    0    0    0    0 -0.00000000000E+00 -0.00000000000E+00 -0.50000000000E+03  0.50000000000E+03  0.00000000000E+00 0. -1.
  1000024    1    1    2    0    0  0.17562877073E+03  0.20270513910E+03  0.38147234989E+03  0.50000000000E+03  0.18039957800E+03 0. -1.
 -1000024    1    1    2    0    0 -0.17562877073E+03 -0.20270513910E+03 -0.38147234989E+03  0.50000000000E+03  0.18039957800E+03 0.  1.
</event>
<event>
 4   0  0.7366543E-04  0.2236068E+02  0.7957747E-01  0.1516063E+00
      -11   -1    0    0    0    0  0.00000000000E+00  0.00000000000E+00  0.50000000000E+03  0.50000000000E+03  0.00000000000E+00 0.  1.
       11   -1    0    0    0    0 -0.00000000000E+00 -0.00000000000E+00 -0.50000000000E+03  0.50000000000E+03  0.00000000000E+00 0. -1.
  1000024    1    1    2    0    0 -0.23441880591E+03 -0.86448503186E+02  0.39373909127E+03  0.50000000000E+03  0.18039957800E+03 0. -1.
 -1000024    1    1    2    0    0  0.23441880591E+03  0.86448503186E+02 -0.39373909127E+03  0.50000000000E+03  0.18039957800E+03 0.  1.
</event>
<event>
 4   0  0.6712789E-04  0.2236068E+02  0.7957747E-01  0.1516063E+00
      -11   -1    0    0    0    0  0.00000000000E+00  0.00000000000E+00  0.50000000000E+03  0.50000000000E+03  0.00000000000E+00 0.  1.
       11   -1    0    0    0    0 -0.00000000000E+00 -0.00000000000E+00 -0.50000000000E+03  0.50000000000E+03  0.00000000000E+00 0. -1.
  1000024    1    1    2    0    0  0.44481619406E+03  0.86755830487E+02 -0.10985432008E+03  0.50000000000E+03  0.18039957800E+03 0.  1.
 -1000024    1    1    2    0    0 -0.44481619406E+03 -0.86755830487E+02  0.10985432008E+03  0.50000000000E+03  0.18039957800E+03 0. -1.
</event>
<event>
 4   0  0.1092222E-03  0.2236068E+02  0.7957747E-01  0.1516063E+00
      -11   -1    0    0    0    0  0.00000000000E+00  0.00000000000E+00  0.50000000000E+03  0.50000000000E+03  0.00000000000E+00 0.  1.
       11   -1    0    0    0    0 -0.00000000000E+00 -0.00000000000E+00 -0.50000000000E+03  0.50000000000E+03  0.00000000000E+00 0. -1.
  1000024    1    1    2    0    0 -0.22982428384E+03 -0.21415524288E+03  0.34463650817E+03  0.50000000000E+03  0.18039957800E+03 0.  1.
 -1000024    1    1    2    0    0  0.22982428384E+03  0.21415524288E+03 -0.34463650817E+03  0.50000000000E+03  0.18039957800E+03 0. -1.
</event>
<event>
 4   0  0.1092222E-03  0.2236068E+02  0.7957747E-01  0.1516063E+00
      -11   -1    0    0    0    0  0.00000000000E+00  0.00000000000E+00  0.50000000000E+03  0.50000000000E+03  0.00000000000E+00 0.  1.
       11   -1    0    0    0    0 -0.00000000000E+00 -0.00000000000E+00 -0.50000000000E+03  0.50000000000E+03  0.00000000000E+00 0. -1.
  1000024    1    1    2    0    0  0.11745654388E+03 -0.17137532884E+03  0.41748107648E+03  0.50000000000E+03  0.18039957800E+03 0.  1.
 -1000024    1    1    2    0    0 -0.11745654388E+03  0.17137532884E+03 -0.41748107648E+03  0.50000000000E+03  0.18039957800E+03 0. -1.
</event>
<event>
 4   0  0.1092222E-03  0.2236068E+02  0.7957747E-01  0.1516063E+00
      -11   -1    0    0    0    0  0.00000000000E+00  0.00000000000E+00  0.50000000000E+03  0.50000000000E+03  0.00000000000E+00 0.  1.
       11   -1    0    0    0    0 -0.00000000000E+00 -0.00000000000E+00 -0.50000000000E+03  0.50000000000E+03  0.00000000000E+00 0. -1.
  1000024    1    1    2    0    0 -0.44325134607E+03 -0.64024123191E+02  0.12994286481E+03  0.50000000000E+03  0.18039957800E+03 0. -1.
 -1000024    1    1    2    0    0  0.44325134607E+03  0.64024123191E+02 -0.12994286481E+03  0.50000000000E+03  0.18039957800E+03 0.  1.
</event>
<event>
 4   0  0.7366543E-04  0.2236068E+02  0.7957747E-01  0.1516063E+00
      -11   -1    0    0    0    0  0.00000000000E+00  0.00000000000E+00  0.50000000000E+03  0.50000000000E+03  0.00000000000E+00 0.  1.
       11   -1    0    0    0    0 -0.00000000000E+00 -0.00000000000E+00 -0.50000000000E+03  0.50000000000E+03  0.00000000000E+00 0. -1.
  1000024    1    1    2    0    0 -0.31954598936E+03 -0.33002767412E+03  0.80175353177E+02  0.50000000000E+03  0.18039957800E+03 0.  1.
 -1000024    1    1    2    0    0  0.31954598936E+03  0.33002767412E+03 -0.80175353177E+02  0.50000000000E+03  0.18039957800E+03 0. -1.
</event>
<event>
 4   0  0.1092222E-03  0.2236068E+02  0.7957747E-01  0.1516063E+00
      -11   -1    0    0    0    0  0.00000000000E+00  0.00000000000E+00  0.50000000000E+03  0.50000000000E+03  0.00000000000E+00 0.  1.
       11   -1    0    0    0    0 -0.00000000000E+00 -0.00000000000E+00 -0.50000000000E+03  0.50000000000E+03  0.00000000000E+00 0. -1.
  1000024    1    1    2    0    0 -0.34107419882E+03  0.14476961853E+02  0.31767090004E+03  0.50000000000E+03  0.18039957800E+03 0.  1.
 -1000024    1    1    2    0    0  0.34107419882E+03 -0.14476961853E+02 -0.31767090004E+03  0.50000000000E+03  0.18039957800E+03 0.  1.
</event>
<event>
 4   0  0.6712789E-04  0.2236068E+02  0.7957747E-01  0.1516063E+00
      -11   -1    0    0    0    0  0.00000000000E+00  0.00000000000E+00  0.50000000000E+03  0.50000000000E+03  0.00000000000E+00 0.  1.
       11   -1    0    0    0    0 -0.00000000000E+00 -0.00000000000E+00 -0.50000000000E+03  0.50000000000E+03  0.00000000000E+00 0. -1.
  1000024    1    1    2    0    0  0.14455167297E+03 -0.33208191599E+02  0.44210634706E+03  0.50000000000E+03  0.18039957800E+03 0.  1.
 -1000024    1    1    2    0    0 -0.14455167297E+03  0.33208191599E+02 -0.44210634706E+03  0.50000000000E+03  0.18039957800E+03 0. -1.
</event>
<event>
 4   0  0.1092222E-03  0.2236068E+02  0.7957747E-01  0.1516063E+00
      -11   -1    0    0    0    0  0.00000000000E+00  0.00000000000E+00  0.50000000000E+03  0.50000000000E+03  0.00000000000E+00 0.  1.
       11   -1    0    0    0    0 -0.00000000000E+00 -0.00000000000E+00 -0.50000000000E+03  0.50000000000E+03  0.00000000000E+00 0. -1.
  1000024    1    1    2    0    0  0.18950078568E+03 -0.32874887852E+03  0.27105279810E+03  0.50000000000E+03  0.18039957800E+03 0. -1.
 -1000024    1    1    2    0    0 -0.18950078568E+03  0.32874887852E+03 -0.27105279810E+03  0.50000000000E+03  0.18039957800E+03 0.  1.
</event>
<event>
 4   0  0.1092222E-03  0.2236068E+02  0.7957747E-01  0.1516063E+00
      -11   -1    0    0    0    0  0.00000000000E+00  0.00000000000E+00  0.50000000000E+03  0.50000000000E+03  0.00000000000E+00 0.  1.
       11   -1    0    0    0    0 -0.00000000000E+00 -0.00000000000E+00 -0.50000000000E+03  0.50000000000E+03  0.00000000000E+00 0. -1.
  1000024    1    1    2    0    0 -0.38767464547E+03 -0.23746704945E+03 -0.10379673376E+03  0.50000000000E+03  0.18039957800E+03 0. -1.
 -1000024    1    1    2    0    0  0.38767464547E+03  0.23746704945E+03  0.10379673376E+03  0.50000000000E+03  0.18039957800E+03 0.  1.
</event>
<event>
 4   0  0.1092222E-03  0.2236068E+02  0.7957747E-01  0.1516063E+00
      -11   -1    0    0    0    0  0.00000000000E+00  0.00000000000E+00  0.50000000000E+03  0.50000000000E+03  0.00000000000E+00 0.  1.
       11   -1    0    0    0    0 -0.00000000000E+00 -0.00000000000E+00 -0.50000000000E+03  0.50000000000E+03  0.00000000000E+00 0. -1.
  1000024    1    1    2    0    0 -0.18543916304E+03  0.42028841923E+03 -0.80162046698E+02  0.50000000000E+03  0.18039957800E+03 0.  1.
 -1000024    1    1    2    0    0  0.18543916304E+03 -0.42028841923E+03  0.80162046698E+02  0.50000000000E+03  0.18039957800E+03 0. -1.
</event>
<event>
 4   0  0.1092222E-03  0.2236068E+02  0.7957747E-01  0.1516063E+00
      -11   -1    0    0    0    0  0.00000000000E+00  0.00000000000E+00  0.50000000000E+03  0.50000000000E+03  0.00000000000E+00 0.  1.
       11   -1    0    0    0    0 -0.00000000000E+00 -0.00000000000E+00 -0.50000000000E+03  0.50000000000E+03  0.00000000000E+00 0. -1.
  1000024    1    1    2    0    0  0.42837061139E+03  0.10203090321E+03  0.15344154049E+03  0.50000000000E+03  0.18039957800E+03 0. -1.
 -1000024    1    1    2    0    0 -0.42837061139E+03 -0.10203090321E+03 -0.15344154049E+03  0.50000000000E+03  0.18039957800E+03 0.  1.
</event>
<event>
 4   0  0.7366543E-04  0.2236068E+02  0.7957747E-01  0.1516063E+00
      -11   -1    0    0    0    0  0.00000000000E+00  0.00000000000E+00  0.50000000000E+03  0.50000000000E+03  0.00000000000E+00 0.  1.
       11   -1    0    0    0    0 -0.00000000000E+00 -0.00000000000E+00 -0.50000000000E+03  0.50000000000E+03  0.00000000000E+00 0. -1.
  1000024    1    1    2    0    0  0.20195018833E+03 -0.36618567637E+03  0.20634961622E+03  0.50000000000E+03  0.18039957800E+03 0. -1.
 -1000024    1    1    2    0    0 -0.20195018833E+03  0.36618567637E+03 -0.20634961622E+03  0.50000000000E+03  0.18039957800E+03 0.  1.
</event>
<event>
 4   0  0.1092222E-03  0.2236068E+02  0.7957747E-01  0.1516063E+00
      -11   -1    0    0    0    0  0.00000000000E+00  0.00000000000E+00  0.50000000000E+03  0.50000000000E+03  0.00000000000E+00 0.  1.
       11   -1    0    0    0    0 -0.00000000000E+00 -0.00000000000E+00 -0.50000000000E+03  0.50000000000E+03  0.00000000000E+00 0. -1.
  1000024    1    1    2    0    0 -0.17751675070E+02  0.37730551058E+03  0.27346192052E+03  0.50000000000E+03  0.18039957800E+03 0. -1.
 -1000024    1    1    2    0    0  0.17751675070E+02 -0.37730551058E+03 -0.27346192052E+03  0.50000000000E+03  0.18039957800E+03 0.  1.
</event>
<event>
 4   0  0.1092222E-03  0.2236068E+02  0.7957747E-01  0.1516063E+00
      -11   -1    0    0    0    0  0.00000000000E+00  0.00000000000E+00  0.50000000000E+03  0.50000000000E+03  0.00000000000E+00 0.  1.
       11   -1    0    0    0    0 -0.00000000000E+00 -0.00000000000E+00 -0.50000000000E+03  0.50000000000E+03  0.00000000000E+00 0. -1.
  1000024    1    1    2    0    0 -0.38417326741E+03  0.26429763532E+03  0.36949733902E+01  0.50000000000E+03  0.18039957800E+03 0. -1.
 -1000024    1    1    2    0    0  0.38417326741E+03 -0.26429763532E+03 -0.36949733902E+01  0.50000000000E+03  0.18039957800E+03 0.  1.
</event>
<event>
 4   0  0.1092222E-03  0.2236068E+02  0.7957747E-01  0.1516063E+00
      -11   -1    0    0    0    0  0.00000000000E+00  0.00000000000E+00  0.50000000000E+03  0.50000000000E+03  0.00000000000E+00 0.  1.
       11   -1    0    0    0    0 -0.00000000000E+00 -0.00000000000E+00 -0.50000000000E+03  0.50000000000E+03  0.00000000000E+00 0. -1.
  1000024    1    1    2    0    0 -0.28880448631E+03 -0.13702325998E+02  0.36586911213E+03  0.50000000000E+03  0.18039957800E+03 0.  1.
 -1000024    1    1    2    0    0  0.28880448631E+03  0.13702325998E+02 -0.36586911213E+03  0.50000000000E+03  0.18039957800E+03 0. -1.
</event>
<event>
 4   0  0.1092222E-03  0.2236068E+02  0.7957747E-01  0.1516063E+00
      -11   -1    0    0    0    0  0.00000000000E+00  0.00000000000E+00  0.50000000000E+03  0.50000000000E+03  0.00000000000E+00 0.  1.
       11   -1    0    0    0    0 -0.00000000000E+00 -0.00000000000E+00 -0.50000000000E+03  0.50000000000E+03  0.00000000000E+00 0. -1.
  1000024    1    1    2    0    0  0.19590327186E+03 -0.42183129177E+03  0.33708479805E+02  0.50000000000E+03  0.18039957800E+03 0. -1.
 -1000024    1    1    2    0    0 -0.19590327186E+03  0.42183129177E+03 -0.33708479805E+02  0.50000000000E+03  0.18039957800E+03 0.  1.
</event>
<event>
 4   0  0.1092222E-03  0.2236068E+02  0.7957747E-01  0.1516063E+00
      -11   -1    0    0    0    0  0.00000000000E+00  0.00000000000E+00  0.50000000000E+03  0.50000000000E+03  0.00000000000E+00 0.  1.
       11   -1    0    0    0    0 -0.00000000000E+00 -0.00000000000E+00 -0.50000000000E+03  0.50000000000E+03  0.00000000000E+00 0. -1.
  1000024    1    1    2    0    0  0.11666133710E+03  0.24651770629E+03  0.37825275302E+03  0.50000000000E+03  0.18039957800E+03 0.  1.
 -1000024    1    1    2    0    0 -0.11666133710E+03 -0.24651770629E+03 -0.37825275302E+03  0.50000000000E+03  0.18039957800E+03 0. -1.
</event>
<event>
 4   0  0.1092222E-03  0.2236068E+02  0.7957747E-01  0.1516063E+00
      -11   -1    0    0    0    0  0.00000000000E+00  0.00000000000E+00  0.50000000000E+03  0.50000000000E+03  0.00000000000E+00 0.  1.
       11   -1    0    0    0    0 -0.00000000000E+00 -0.00000000000E+00 -0.50000000000E+03  0.50000000000E+03  0.00000000000E+00 0. -1.
  1000024    1    1    2    0    0  0.22641346804E+03  0.86278728441E+02  0.39843307439E+03  0.50000000000E+03  0.18039957800E+03 0. -1.
 -1000024    1    1    2    0    0 -0.22641346804E+03 -0.86278728441E+02 -0.39843307439E+03  0.50000000000E+03  0.18039957800E+03 0.  1.
</event>
<event>
 4   0  0.7366543E-04  0.2236068E+02  0.7957747E-01  0.1516063E+00
      -11   -1    0    0    0    0  0.00000000000E+00  0.00000000000E+00  0.50000000000E+03  0.50000000000E+03  0.00000000000E+00 0.  1.
       11   -1    0    0    0    0 -0.00000000000E+00 -0.00000000000E+00 -0.50000000000E+03  0.50000000000E+03  0.00000000000E+00 0. -1.
  1000024    1    1    2    0    0 -0.32505519309E+03  0.15475355452E+03  0.29638901981E+03  0.50000000000E+03  0.18039957800E+03 0. -1.
 -1000024    1    1    2    0    0  0.32505519309E+03 -0.15475355452E+03 -0.29638901981E+03  0.50000000000E+03  0.18039957800E+03 0.  1.
</event>
<event>
 4   0  0.6712789E-04  0.2236068E+02  0.7957747E-01  0.1516063E+00
      -11   -1    0    0    0    0  0.00000000000E+00  0.00000000000E+00  0.50000000000E+03  0.50000000000E+03  0.00000000000E+00 0.  1.
       11   -1    0    0    0    0 -0.00000000000E+00 -0.00000000000E+00 -0.50000000000E+03  0.50000000000E+03  0.00000000000E+00 0. -1.
  1000024    1    1    2    0    0  0.24301000042E+03 -0.17816136448E+03  0.35589416989E+03  0.50000000000E+03  0.18039957800E+03 0. -1.
 -1000024    1    1    2    0    0 -0.24301000042E+03  0.17816136448E+03 -0.35589416989E+03  0.50000000000E+03  0.18039957800E+03 0.  1.
</event>
<event>
 4   0  0.6712789E-04  0.2236068E+02  0.7957747E-01  0.1516063E+00
      -11   -1    0    0    0    0  0.00000000000E+00  0.00000000000E+00  0.50000000000E+03  0.50000000000E+03  0.00000000000E+00 0.  1.
       11   -1    0    0    0    0 -0.00000000000E+00 -0.00000000000E+00 -0.50000000000E+03  0.50000000000E+03  0.00000000000E+00 0. -1.
  1000024    1    1    2    0    0 -0.16221236676E+03  0.20815330954E+03  0.38446760599E+03  0.50000000000E+03  0.18039957800E+03 0. -1.
 -1000024    1    1    2    0    0  0.16221236676E+03 -0.20815330954E+03 -0.38446760599E+03  0.50000000000E+03  0.18039957800E+03 0.  1.
</event>
<event>
 4   0  0.6712789E-04  0.2236068E+02  0.7957747E-01  0.1516063E+00
      -11   -1    0    0    0    0  0.00000000000E+00  0.00000000000E+00  0.50000000000E+03  0.50000000000E+03  0.00000000000E+00 0.  1.
       11   -1    0    0    0    0 -0.00000000000E+00 -0.00000000000E+00 -0.50000000000E+03  0.50000000000E+03  0.00000000000E+00 0. -1.
  1000024    1    1    2    0    0 -0.36906946778E+03 -0.26719578601E+03 -0.99247831958E+02  0.50000000000E+03  0.18039957800E+03 0. -1.
 -1000024    1    1    2    0    0  0.36906946778E+03  0.26719578601E+03  0.99247831958E+02  0.50000000000E+03  0.18039957800E+03 0.  1.
</event>
<event>
 4   0  0.1092222E-03  0.2236068E+02  0.7957747E-01  0.1516063E+00
      -11   -1    0    0    0    0  0.00000000000E+00  0.00000000000E+00  0.50000000000E+03  0.50000000000E+03  0.00000000000E+00 0.  1.
       11   -1    0    0    0    0 -0.00000000000E+00 -0.00000000000E+00 -0.50000000000E+03  0.50000000000E+03  0.00000000000E+00 0. -1.
  1000024    1    1    2    0    0  0.74558596650E+02 -0.39890332792E+03  0.22972405817E+03  0.50000000000E+03  0.18039957800E+03 0.  1.
 -1000024    1    1    2    0    0 -0.74558596650E+02  0.39890332792E+03 -0.22972405817E+03  0.50000000000E+03  0.18039957800E+03 0. -1.
</event>
<event>
 4   0  0.1092222E-03  0.2236068E+02  0.7957747E-01  0.1516063E+00
      -11   -1    0    0    0    0  0.00000000000E+00  0.00000000000E+00  0.50000000000E+03  0.50000000000E+03  0.00000000000E+00 0.  1.
       11   -1    0    0    0    0 -0.00000000000E+00 -0.00000000000E+00 -0.50000000000E+03  0.50000000000E+03  0.00000000000E+00 0. -1.
  1000024    1    1    2    0    0  0.42965767414E+03  0.14744919092E+03  0.10539929511E+03  0.50000000000E+03  0.18039957800E+03 0. -1.
 -1000024    1    1    2    0    0 -0.42965767414E+03 -0.14744919092E+03 -0.10539929511E+03  0.50000000000E+03  0.18039957800E+03 0.  1.
</event>
<event>
 4   0  0.7366543E-04  0.2236068E+02  0.7957747E-01  0.1516063E+00
      -11   -1    0    0    0    0  0.00000000000E+00  0.00000000000E+00  0.50000000000E+03  0.50000000000E+03  0.00000000000E+00 0.  1.
       11   -1    0    0    0    0 -0.00000000000E+00 -0.00000000000E+00 -0.50000000000E+03  0.50000000000E+03  0.00000000000E+00 0. -1.
  1000024    1    1    2    0    0 -0.35490113379E+03  0.43302835994E+02  0.29937608771E+03  0.50000000000E+03  0.18039957800E+03 0. -1.
 -1000024    1    1    2    0    0  0.35490113379E+03 -0.43302835994E+02 -0.29937608771E+03  0.50000000000E+03  0.18039957800E+03 0.  1.
</event>
<event>
 4   0  0.7366543E-04  0.2236068E+02  0.7957747E-01  0.1516063E+00
      -11   -1    0    0    0    0  0.00000000000E+00  0.00000000000E+00  0.50000000000E+03  0.50000000000E+03  0.00000000000E+00 0.  1.
       11   -1    0    0    0    0 -0.00000000000E+00 -0.00000000000E+00 -0.50000000000E+03  0.50000000000E+03  0.00000000000E+00 0. -1.
  1000024    1    1    2    0    0 -0.38373508948E+03  0.14556314952E+03  0.22139273444E+03  0.50000000000E+03  0.18039957800E+03 0.  1.
 -1000024    1    1    2    0    0  0.38373508948E+03 -0.14556314952E+03 -0.22139273444E+03  0.50000000000E+03  0.18039957800E+03 0. -1.
</event>
<event>
 4   0  0.7366543E-04  0.2236068E+02  0.7957747E-01  0.1516063E+00
      -11   -1    0    0    0    0  0.00000000000E+00  0.00000000000E+00  0.50000000000E+03  0.50000000000E+03  0.00000000000E+00 0.  1.
       11   -1    0    0    0    0 -0.00000000000E+00 -0.00000000000E+00 -0.50000000000E+03  0.50000000000E+03  0.00000000000E+00 0. -1.
  1000024    1    1    2    0    0  0.31480154775E+03  0.30763079902E+03  0.15401061421E+03  0.50000000000E+03  0.18039957800E+03 0.  1.
 -1000024    1    1    2    0    0 -0.31480154775E+03 -0.30763079902E+03 -0.15401061421E+03  0.50000000000E+03  0.18039957800E+03 0. -1.
</event>
<event>
 4   0  0.6712789E-04  0.2236068E+02  0.7957747E-01  0.1516063E+00
      -11   -1    0    0    0    0  0.00000000000E+00  0.00000000000E+00  0.50000000000E+03  0.50000000000E+03  0.00000000000E+00 0.  1.
       11   -1    0    0    0    0 -0.00000000000E+00 -0.00000000000E+00 -0.50000000000E+03  0.50000000000E+03  0.00000000000E+00 0. -1.
  1000024    1    1    2    0    0 -0.36161501966E+03 -0.22143829693E+03  0.19405063893E+03  0.50000000000E+03  0.18039957800E+03 0.  1.
 -1000024    1    1    2    0    0  0.36161501966E+03  0.22143829693E+03 -0.19405063893E+03  0.50000000000E+03  0.18039957800E+03 0. -1.
</event>
<event>
 4   0  0.6712789E-04  0.2236068E+02  0.7957747E-01  0.1516063E+00
      -11   -1    0    0    0    0  0.00000000000E+00  0.00000000000E+00  0.50000000000E+03  0.50000000000E+03  0.00000000000E+00 0.  1.
       11   -1    0    0    0    0 -0.00000000000E+00 -0.00000000000E+00 -0.50000000000E+03  0.50000000000E+03  0.00000000000E+00 0. -1.
  1000024    1    1    2    0    0  0.24929401214E+03 -0.32399631208E+03  0.22435435705E+03  0.50000000000E+03  0.18039957800E+03 0. -1.
 -1000024    1    1    2    0    0 -0.24929401214E+03  0.32399631208E+03 -0.22435435705E+03  0.50000000000E+03  0.18039957800E+03 0.  1.
</event>
<event>
 4   0  0.7366543E-04  0.2236068E+02  0.7957747E-01  0.1516063E+00
      -11   -1    0    0    0    0  0.00000000000E+00  0.00000000000E+00  0.50000000000E+03  0.50000000000E+03  0.00000000000E+00 0.  1.
       11   -1    0    0    0    0 -0.00000000000E+00 -0.00000000000E+00 -0.50000000000E+03  0.50000000000E+03  0.00000000000E+00 0. -1.
  1000024    1    1    2    0    0 -0.62846681890E+02 -0.28637508333E+03  0.36262321834E+03  0.50000000000E+03  0.18039957800E+03 0.  1.
 -1000024    1    1    2    0    0  0.62846681890E+02  0.28637508333E+03 -0.36262321834E+03  0.50000000000E+03  0.18039957800E+03 0. -1.
</event>
<event>
 4   0  0.7366543E-04  0.2236068E+02  0.7957747E-01  0.1516063E+00
      -11   -1    0    0    0    0  0.00000000000E+00  0.00000000000E+00  0.50000000000E+03  0.50000000000E+03  0.00000000000E+00 0.  1.
       11   -1    0    0    0    0 -0.00000000000E+00 -0.00000000000E+00 -0.50000000000E+03  0.50000000000E+03  0.00000000000E+00 0. -1.
  1000024    1    1    2    0    0  0.56641814037E+02  0.44309856441E+03 -0.13383332686E+03  0.50000000000E+03  0.18039957800E+03 0.  1.
 -1000024    1    1    2    0    0 -0.56641814037E+02 -0.44309856441E+03  0.13383332686E+03  0.50000000000E+03  0.18039957800E+03 0. -1.
</event>
<event>
 4   0  0.1092222E-03  0.2236068E+02  0.7957747E-01  0.1516063E+00
      -11   -1    0    0    0    0  0.00000000000E+00  0.00000000000E+00  0.50000000000E+03  0.50000000000E+03  0.00000000000E+00 0.  1.
       11   -1    0    0    0    0 -0.00000000000E+00 -0.00000000000E+00 -0.50000000000E+03  0.50000000000E+03  0.00000000000E+00 0. -1.
  1000024    1    1    2    0    0 -0.13807935249E+03 -0.37704993925E+03  0.23711479916E+03  0.50000000000E+03  0.18039957800E+03 0.  1.
 -1000024    1    1    2    0    0  0.13807935249E+03  0.37704993925E+03 -0.23711479916E+03  0.50000000000E+03  0.18039957800E+03 0. -1.
</event>
<event>
 4   0  0.7366543E-04  0.2236068E+02  0.7957747E-01  0.1516063E+00
      -11   -1    0    0    0    0  0.00000000000E+00  0.00000000000E+00  0.50000000000E+03  0.50000000000E+03  0.00000000000E+00 0.  1.
       11   -1    0    0    0    0 -0.00000000000E+00 -0.00000000000E+00 -0.50000000000E+03  0.50000000000E+03  0.00000000000E+00 0. -1.
  1000024    1    1    2    0    0 -0.25799895934E+03 -0.24836044217E+03  0.29867979510E+03  0.50000000000E+03  0.18039957800E+03 0.  1.
 -1000024    1    1    2    0    0  0.25799895934E+03  0.24836044217E+03 -0.29867979510E+03  0.50000000000E+03  0.18039957800E+03 0. -1.
</event>
<event>
 4   0  0.1092222E-03  0.2236068E+02  0.7957747E-01  0.1516063E+00
      -11   -1    0    0    0    0  0.00000000000E+00  0.00000000000E+00  0.50000000000E+03  0.50000000000E+03  0.00000000000E+00 0.  1.
       11   -1    0    0    0    0 -0.00000000000E+00 -0.00000000000E+00 -0.50000000000E+03  0.50000000000E+03  0.00000000000E+00 0. -1.
  1000024    1    1    2    0    0 -0.38814176590E+03  0.11157996727E+03  0.23313488096E+03  0.50000000000E+03  0.18039957800E+03 0.  1.
 -1000024    1    1    2    0    0  0.38814176590E+03 -0.11157996727E+03 -0.23313488096E+03  0.50000000000E+03  0.18039957800E+03 0. -1.
</event>
<event>
 4   0  0.1092222E-03  0.2236068E+02  0.7957747E-01  0.1516063E+00
      -11   -1    0    0    0    0  0.00000000000E+00  0.00000000000E+00  0.50000000000E+03  0.50000000000E+03  0.00000000000E+00 0.  1.
       11   -1    0    0    0    0 -0.00000000000E+00 -0.00000000000E+00 -0.50000000000E+03  0.50000000000E+03  0.00000000000E+00 0. -1.
  1000024    1    1    2    0    0  0.26421724537E+03  0.11504024754E+03  0.36662103180E+03  0.50000000000E+03  0.18039957800E+03 0.  1.
 -1000024    1    1    2    0    0 -0.26421724537E+03 -0.11504024754E+03 -0.36662103180E+03  0.50000000000E+03  0.18039957800E+03 0. -1.
</event>
<event>
 4   0  0.1092222E-03  0.2236068E+02  0.7957747E-01  0.1516063E+00
      -11   -1    0    0    0    0  0.00000000000E+00  0.00000000000E+00  0.50000000000E+03  0.50000000000E+03  0.00000000000E+00 0.  1.
       11   -1    0    0    0    0 -0.00000000000E+00 -0.00000000000E+00 -0.50000000000E+03  0.50000000000E+03  0.00000000000E+00 0. -1.
  1000024    1    1    2    0    0 -0.12152637806E+03 -0.36278180235E+03  0.26660212973E+03  0.50000000000E+03  0.18039957800E+03 0.  1.
 -1000024    1    1    2    0    0  0.12152637806E+03  0.36278180235E+03 -0.26660212973E+03  0.50000000000E+03  0.18039957800E+03 0. -1.
</event>
<event>
 4   0  0.6712789E-04  0.2236068E+02  0.7957747E-01  0.1516063E+00
      -11   -1    0    0    0    0  0.00000000000E+00  0.00000000000E+00  0.50000000000E+03  0.50000000000E+03  0.00000000000E+00 0.  1.
       11   -1    0    0    0    0 -0.00000000000E+00 -0.00000000000E+00 -0.50000000000E+03  0.50000000000E+03  0.00000000000E+00 0. -1.
  1000024    1    1    2    0    0 -0.28040844788E+03  0.36266051932E+03 -0.85466030318E+02  0.50000000000E+03  0.18039957800E+03 0. -1.
 -1000024    1    1    2    0    0  0.28040844788E+03 -0.36266051932E+03  0.85466030318E+02  0.50000000000E+03  0.18039957800E+03 0.  1.
</event>
<event>
 4   0  0.1092222E-03  0.2236068E+02  0.7957747E-01  0.1516063E+00
      -11   -1    0    0    0    0  0.00000000000E+00  0.00000000000E+00  0.50000000000E+03  0.50000000000E+03  0.00000000000E+00 0.  1.
       11   -1    0    0    0    0 -0.00000000000E+00 -0.00000000000E+00 -0.50000000000E+03  0.50000000000E+03  0.00000000000E+00 0. -1.
  1000024    1    1    2    0    0  0.41647408085E+03  0.20671362666E+03  0.35704464557E+02  0.50000000000E+03  0.18039957800E+03 0. -1.
 -1000024    1    1    2    0    0 -0.41647408085E+03 -0.20671362666E+03 -0.35704464557E+02  0.50000000000E+03  0.18039957800E+03 0.  1.
</event>
<event>
 4   0  0.7366543E-04  0.2236068E+02  0.7957747E-01  0.1516063E+00
      -11   -1    0    0    0    0  0.00000000000E+00  0.00000000000E+00  0.50000000000E+03  0.50000000000E+03  0.00000000000E+00 0.  1.
       11   -1    0    0    0    0 -0.00000000000E+00 -0.00000000000E+00 -0.50000000000E+03  0.50000000000E+03  0.00000000000E+00 0. -1.
  1000024    1    1    2    0    0 -0.32711834419E+03  0.12683514345E+02  0.33209743994E+03  0.50000000000E+03  0.18039957800E+03 0.  1.
 -1000024    1    1    2    0    0  0.32711834419E+03 -0.12683514345E+02 -0.33209743994E+03  0.50000000000E+03  0.18039957800E+03 0.  1.
</event>
<event>
 4   0  0.1092222E-03  0.2236068E+02  0.7957747E-01  0.1516063E+00
      -11   -1    0    0    0    0  0.00000000000E+00  0.00000000000E+00  0.50000000000E+03  0.50000000000E+03  0.00000000000E+00 0.  1.
       11   -1    0    0    0    0 -0.00000000000E+00 -0.00000000000E+00 -0.50000000000E+03  0.50000000000E+03  0.00000000000E+00 0. -1.
  1000024    1    1    2    0    0 -0.34245091901E+03  0.30744373336E+03  0.75244342922E+02  0.50000000000E+03  0.18039957800E+03 0. -1.
 -1000024    1    1    2    0    0  0.34245091901E+03 -0.30744373336E+03 -0.75244342922E+02  0.50000000000E+03  0.18039957800E+03 0.  1.
</event>
<event>
 4   0  0.7366543E-04  0.2236068E+02  0.7957747E-01  0.1516063E+00
      -11   -1    0    0    0    0  0.00000000000E+00  0.00000000000E+00  0.50000000000E+03  0.50000000000E+03  0.00000000000E+00 0.  1.
       11   -1    0    0    0    0 -0.00000000000E+00 -0.00000000000E+00 -0.50000000000E+03  0.50000000000E+03  0.00000000000E+00 0. -1.
  1000024    1    1    2    0    0  0.98825354803E+01 -0.16217283600E+03  0.43710216084E+03  0.50000000000E+03  0.18039957800E+03 0. -1.
 -1000024    1    1    2    0    0 -0.98825354803E+01  0.16217283600E+03 -0.43710216084E+03  0.50000000000E+03  0.18039957800E+03 0.  1.
</event>
<event>
 4   0  0.1092222E-03  0.2236068E+02  0.7957747E-01  0.1516063E+00
      -11   -1    0    0    0    0  0.00000000000E+00  0.00000000000E+00  0.50000000000E+03  0.50000000000E+03  0.00000000000E+00 0.  1.
       11   -1    0    0    0    0 -0.00000000000E+00 -0.00000000000E+00 -0.50000000000E+03  0.50000000000E+03  0.00000000000E+00 0. -1.
  1000024    1    1    2    0    0 -0.37193170207E+03 -0.21493695406E+03  0.18145221694E+03  0.50000000000E+03  0.18039957800E+03 0. -1.
 -1000024    1    1    2    0    0  0.37193170207E+03  0.21493695406E+03 -0.18145221694E+03  0.50000000000E+03  0.18039957800E+03 0.  1.
</event>
<event>
 4   0  0.1092222E-03  0.2236068E+02  0.7957747E-01  0.1516063E+00
      -11   -1    0    0    0    0  0.00000000000E+00  0.00000000000E+00  0.50000000000E+03  0.50000000000E+03  0.00000000000E+00 0.  1.
       11   -1    0    0    0    0 -0.00000000000E+00 -0.00000000000E+00 -0.50000000000E+03  0.50000000000E+03  0.00000000000E+00 0. -1.
  1000024    1    1    2    0    0  0.34901250441E+03 -0.23889503082E+03  0.19640628369E+03  0.50000000000E+03  0.18039957800E+03 0.  1.
 -1000024    1    1    2    0    0 -0.34901250441E+03  0.23889503082E+03 -0.19640628369E+03  0.50000000000E+03  0.18039957800E+03 0. -1.
</event>
<event>
 4   0  0.1092222E-03  0.2236068E+02  0.7957747E-01  0.1516063E+00
      -11   -1    0    0    0    0  0.00000000000E+00  0.00000000000E+00  0.50000000000E+03  0.50000000000E+03  0.00000000000E+00 0.  1.
       11   -1    0    0    0    0 -0.00000000000E+00 -0.00000000000E+00 -0.50000000000E+03  0.50000000000E+03  0.00000000000E+00 0. -1.
  1000024    1    1    2    0    0 -0.42269526885E+03 -0.19526082327E+03 -0.25649811872E+02  0.50000000000E+03  0.18039957800E+03 0.  1.
 -1000024    1    1    2    0    0  0.42269526885E+03  0.19526082327E+03  0.25649811872E+02  0.50000000000E+03  0.18039957800E+03 0. -1.
</event>
<event>
 4   0  0.6712789E-04  0.2236068E+02  0.7957747E-01  0.1516063E+00
      -11   -1    0    0    0    0  0.00000000000E+00  0.00000000000E+00  0.50000000000E+03  0.50000000000E+03  0.00000000000E+00 0.  1.
       11   -1    0    0    0    0 -0.00000000000E+00 -0.00000000000E+00 -0.50000000000E+03  0.50000000000E+03  0.00000000000E+00 0. -1.
  1000024    1    1    2    0    0 -0.12644133741E+03 -0.85871025501E+01  0.44877036680E+03  0.50000000000E+03  0.18039957800E+03 0.  1.
 -1000024    1    1    2    0    0  0.12644133741E+03  0.85871025501E+01 -0.44877036680E+03  0.50000000000E+03  0.18039957800E+03 0. -1.
</event>
<event>
 4   0  0.1092222E-03  0.2236068E+02  0.7957747E-01  0.1516063E+00
      -11   -1    0    0    0    0  0.00000000000E+00  0.00000000000E+00  0.50000000000E+03  0.50000000000E+03  0.00000000000E+00 0.  1.
       11   -1    0    0    0    0 -0.00000000000E+00 -0.00000000000E+00 -0.50000000000E+03  0.50000000000E+03  0.00000000000E+00 0. -1.
  1000024    1    1    2    0    0 -0.11669493572E+03 -0.43647317857E+03  0.11545323131E+03  0.50000000000E+03  0.18039957800E+03 0.  1.
 -1000024    1    1    2    0    0  0.11669493572E+03  0.43647317857E+03 -0.11545323131E+03  0.50000000000E+03  0.18039957800E+03 0. -1.
</event>
<event>
 4   0  0.7366543E-04  0.2236068E+02  0.7957747E-01  0.1516063E+00
      -11   -1    0    0    0    0  0.00000000000E+00  0.00000000000E+00  0.50000000000E+03  0.50000000000E+03  0.00000000000E+00 0.  1.
       11   -1    0    0    0    0 -0.00000000000E+00 -0.00000000000E+00 -0.50000000000E+03  0.50000000000E+03  0.00000000000E+00 0. -1.
  1000024    1    1    2    0    0  0.10313799166E+02 -0.45804445790E+03  0.86861340032E+02  0.50000000000E+03  0.18039957800E+03 0. -1.
 -1000024    1    1    2    0    0 -0.10313799166E+02  0.45804445790E+03 -0.86861340032E+02  0.50000000000E+03  0.18039957800E+03 0.  1.
</event>
<event>
 4   0  0.1092222E-03  0.2236068E+02  0.7957747E-01  0.1516063E+00
      -11   -1    0    0    0    0  0.00000000000E+00  0.00000000000E+00  0.50000000000E+03  0.50000000000E+03  0.00000000000E+00 0.  1.
       11   -1    0    0    0    0 -0.00000000000E+00 -0.00000000000E+00 -0.50000000000E+03  0.50000000000E+03  0.00000000000E+00 0. -1.
  1000024    1    1    2    0    0 -0.31062455253E+03 -0.33775419523E+03  0.83008934615E+02  0.50000000000E+03  0.18039957800E+03 0.  1.
 -1000024    1    1    2    0    0  0.31062455253E+03  0.33775419523E+03 -0.83008934615E+02  0.50000000000E+03  0.18039957800E+03 0. -1.
</event>
<event>
 4   0  0.1092222E-03  0.2236068E+02  0.7957747E-01  0.1516063E+00
      -11   -1    0    0    0    0  0.00000000000E+00  0.00000000000E+00  0.50000000000E+03  0.50000000000E+03  0.00000000000E+00 0.  1.
       11   -1    0    0    0    0 -0.00000000000E+00 -0.00000000000E+00 -0.50000000000E+03  0.50000000000E+03  0.00000000000E+00 0. -1.
  1000024    1    1    2    0    0 -0.81702513472E+02  0.33888082027E+03  0.30974260475E+03  0.50000000000E+03  0.18039957800E+03 0. -1.
 -1000024    1    1    2    0    0  0.81702513472E+02 -0.33888082027E+03 -0.30974260475E+03  0.50000000000E+03  0.18039957800E+03 0.  1.
</event>
<event>
 4   0  0.6712789E-04  0.2236068E+02  0.7957747E-01  0.1516063E+00
      -11   -1    0    0    0    0  0.00000000000E+00  0.00000000000E+00  0.50000000000E+03  0.50000000000E+03  0.00000000000E+00 0.  1.
       11   -1    0    0    0    0 -0.00000000000E+00 -0.00000000000E+00 -0.50000000000E+03  0.50000000000E+03  0.00000000000E+00 0. -1.
  1000024    1    1    2    0    0 -0.39474409936E+03 -0.19891582250E+03 -0.14854488828E+03  0.50000000000E+03  0.18039957800E+03 0. -1.
 -1000024    1    1    2    0    0  0.39474409936E+03  0.19891582250E+03  0.14854488828E+03  0.50000000000E+03  0.18039957800E+03 0.  1.
</event>
<event>
 4   0  0.1092222E-03  0.2236068E+02  0.7957747E-01  0.1516063E+00
      -11   -1    0    0    0    0  0.00000000000E+00  0.00000000000E+00  0.50000000000E+03  0.50000000000E+03  0.00000000000E+00 0.  1.
       11   -1    0    0    0    0 -0.00000000000E+00 -0.00000000000E+00 -0.50000000000E+03  0.50000000000E+03  0.00000000000E+00 0. -1.
  1000024    1    1    2    0    0  0.38850230074E+03  0.22147077548E+03  0.13218415255E+03  0.50000000000E+03  0.18039957800E+03 0. -1.
 -1000024    1    1    2    0    0 -0.38850230074E+03 -0.22147077548E+03 -0.13218415255E+03  0.50000000000E+03  0.18039957800E+03 0.  1.
</event>
<event>
 4   0  0.1092222E-03  0.2236068E+02  0.7957747E-01  0.1516063E+00
      -11   -1    0    0    0    0  0.00000000000E+00  0.00000000000E+00  0.50000000000E+03  0.50000000000E+03  0.00000000000E+00 0.  1.
       11   -1    0    0    0    0 -0.00000000000E+00 -0.00000000000E+00 -0.50000000000E+03  0.50000000000E+03  0.00000000000E+00 0. -1.
  1000024    1    1    2    0    0 -0.40868655638E+03 -0.22416902829E+03  0.13399166017E+02  0.50000000000E+03  0.18039957800E+03 0.  1.
 -1000024    1    1    2    0    0  0.40868655638E+03  0.22416902829E+03 -0.13399166017E+02  0.50000000000E+03  0.18039957800E+03 0. -1.
</event>
<event>
 4   0  0.1092222E-03  0.2236068E+02  0.7957747E-01  0.1516063E+00
      -11   -1    0    0    0    0  0.00000000000E+00  0.00000000000E+00  0.50000000000E+03  0.50000000000E+03  0.00000000000E+00 0.  1.
       11   -1    0    0    0    0 -0.00000000000E+00 -0.00000000000E+00 -0.50000000000E+03  0.50000000000E+03  0.00000000000E+00 0. -1.
  1000024    1    1    2    0    0  0.11913434940E+03 -0.29084731356E+03  0.34448634116E+03  0.50000000000E+03  0.18039957800E+03 0. -1.
 -1000024    1    1    2    0    0 -0.11913434940E+03  0.29084731356E+03 -0.34448634116E+03  0.50000000000E+03  0.18039957800E+03 0.  1.
</event>
<event>
 4   0  0.7366543E-04  0.2236068E+02  0.7957747E-01  0.1516063E+00
      -11   -1    0    0    0    0  0.00000000000E+00  0.00000000000E+00  0.50000000000E+03  0.50000000000E+03  0.00000000000E+00 0.  1.
       11   -1    0    0    0    0 -0.00000000000E+00 -0.00000000000E+00 -0.50000000000E+03  0.50000000000E+03  0.00000000000E+00 0. -1.
  1000024    1    1    2    0    0  0.19473140427E+03 -0.13433021578E+03  0.40185950975E+03  0.50000000000E+03  0.18039957800E+03 0.  1.
 -1000024    1    1    2    0    0 -0.19473140427E+03  0.13433021578E+03 -0.40185950975E+03  0.50000000000E+03  0.18039957800E+03 0. -1.
</event>
<event>
 4   0  0.7366543E-04  0.2236068E+02  0.7957747E-01  0.1516063E+00
      -11   -1    0    0    0    0  0.00000000000E+00  0.00000000000E+00  0.50000000000E+03  0.50000000000E+03  0.00000000000E+00 0.  1.
       11   -1    0    0    0    0 -0.00000000000E+00 -0.00000000000E+00 -0.50000000000E+03  0.50000000000E+03  0.00000000000E+00 0. -1.
  1000024    1    1    2    0    0 -0.23257653087E+03 -0.13372476003E+03  0.38142081498E+03  0.50000000000E+03  0.18039957800E+03 0.  1.
 -1000024    1    1    2    0    0  0.23257653087E+03  0.13372476003E+03 -0.38142081498E+03  0.50000000000E+03  0.18039957800E+03 0. -1.
</event>
<event>
 4   0  0.1092222E-03  0.2236068E+02  0.7957747E-01  0.1516063E+00
      -11   -1    0    0    0    0  0.00000000000E+00  0.00000000000E+00  0.50000000000E+03  0.50000000000E+03  0.00000000000E+00 0.  1.
       11   -1    0    0    0    0 -0.00000000000E+00 -0.00000000000E+00 -0.50000000000E+03  0.50000000000E+03  0.00000000000E+00 0. -1.
  1000024    1    1    2    0    0 -0.28714594725E+03 -0.10098700466E+03  0.35327725956E+03  0.50000000000E+03  0.18039957800E+03 0.  1.
 -1000024    1    1    2    0    0  0.28714594725E+03  0.10098700466E+03 -0.35327725956E+03  0.50000000000E+03  0.18039957800E+03 0. -1.
</event>
<event>
 4   0  0.1092222E-03  0.2236068E+02  0.7957747E-01  0.1516063E+00
      -11   -1    0    0    0    0  0.00000000000E+00  0.00000000000E+00  0.50000000000E+03  0.50000000000E+03  0.00000000000E+00 0.  1.
       11   -1    0    0    0    0 -0.00000000000E+00 -0.00000000000E+00 -0.50000000000E+03  0.50000000000E+03  0.00000000000E+00 0. -1.
  1000024    1    1    2    0    0 -0.40861645456E+03  0.54356655376E+02  0.21802279545E+03  0.50000000000E+03  0.18039957800E+03 0. -1.
 -1000024    1    1    2    0    0  0.40861645456E+03 -0.54356655376E+02 -0.21802279545E+03  0.50000000000E+03  0.18039957800E+03 0. -1.
</event>
<event>
 4   0  0.1092222E-03  0.2236068E+02  0.7957747E-01  0.1516063E+00
      -11   -1    0    0    0    0  0.00000000000E+00  0.00000000000E+00  0.50000000000E+03  0.50000000000E+03  0.00000000000E+00 0.  1.
       11   -1    0    0    0    0 -0.00000000000E+00 -0.00000000000E+00 -0.50000000000E+03  0.50000000000E+03  0.00000000000E+00 0. -1.
  1000024    1    1    2    0    0 -0.38671620278E+03 -0.14132922176E+03  0.21893520009E+03  0.50000000000E+03  0.18039957800E+03 0. -1.
 -1000024    1    1    2    0    0  0.38671620278E+03  0.14132922176E+03 -0.21893520009E+03  0.50000000000E+03  0.18039957800E+03 0.  1.
</event>
<event>
 4   0  0.1092222E-03  0.2236068E+02  0.7957747E-01  0.1516063E+00
      -11   -1    0    0    0    0  0.00000000000E+00  0.00000000000E+00  0.50000000000E+03  0.50000000000E+03  0.00000000000E+00 0.  1.
       11   -1    0    0    0    0 -0.00000000000E+00 -0.00000000000E+00 -0.50000000000E+03  0.50000000000E+03  0.00000000000E+00 0. -1.
  1000024    1    1    2    0    0  0.26014823846E+03  0.25352475047E+03  0.29241081919E+03  0.50000000000E+03  0.18039957800E+03 0. -1.
 -1000024    1    1    2    0    0 -0.26014823846E+03 -0.25352475047E+03 -0.29241081919E+03  0.50000000000E+03  0.18039957800E+03 0.  1.
</event>
<event>
 4   0  0.1092222E-03  0.2236068E+02  0.7957747E-01  0.1516063E+00
      -11   -1    0    0    0    0  0.00000000000E+00  0.00000000000E+00  0.50000000000E+03  0.50000000000E+03  0.00000000000E+00 0.  1.
       11   -1    0    0    0    0 -0.00000000000E+00 -0.00000000000E+00 -0.50000000000E+03  0.50000000000E+03  0.00000000000E+00 0. -1.
  1000024    1    1    2    0    0 -0.33992689495E+02  0.43786147533E+03 -0.15677314099E+03  0.50000000000E+03  0.18039957800E+03 0.  1.
 -1000024    1    1    2    0    0  0.33992689495E+02 -0.43786147533E+03  0.15677314099E+03  0.50000000000E+03  0.18039957800E+03 0. -1.
</event>
<event>
 4   0  0.1092222E-03  0.2236068E+02  0.7957747E-01  0.1516063E+00
      -11   -1    0    0    0    0  0.00000000000E+00  0.00000000000E+00  0.50000000000E+03  0.50000000000E+03  0.00000000000E+00 0.  1.
       11   -1    0    0    0    0 -0.00000000000E+00 -0.00000000000E+00 -0.50000000000E+03  0.50000000000E+03  0.00000000000E+00 0. -1.
  1000024    1    1    2    0    0 -0.84478758430E+02  0.16952354671E+03  0.42612333748E+03  0.50000000000E+03  0.18039957800E+03 0.  1.
 -1000024    1    1    2    0    0  0.84478758430E+02 -0.16952354671E+03 -0.42612333748E+03  0.50000000000E+03  0.18039957800E+03 0.  1.
</event>
<event>
 4   0  0.6712789E-04  0.2236068E+02  0.7957747E-01  0.1516063E+00
      -11   -1    0    0    0    0  0.00000000000E+00  0.00000000000E+00  0.50000000000E+03  0.50000000000E+03  0.00000000000E+00 0.  1.
       11   -1    0    0    0    0 -0.00000000000E+00 -0.00000000000E+00 -0.50000000000E+03  0.50000000000E+03  0.00000000000E+00 0. -1.
  1000024    1    1    2    0    0 -0.42602555947E+03 -0.10442532383E+03 -0.15828318507E+03  0.50000000000E+03  0.18039957800E+03 0. -1.
 -1000024    1    1    2    0    0  0.42602555947E+03  0.10442532383E+03  0.15828318507E+03  0.50000000000E+03  0.18039957800E+03 0.  1.
</event>
<event>
 4   0  0.6712789E-04  0.2236068E+02  0.7957747E-01  0.1516063E+00
      -11   -1    0    0    0    0  0.00000000000E+00  0.00000000000E+00  0.50000000000E+03  0.50000000000E+03  0.00000000000E+00 0.  1.
       11   -1    0    0    0    0 -0.00000000000E+00 -0.00000000000E+00 -0.50000000000E+03  0.50000000000E+03  0.00000000000E+00 0. -1.
  1000024    1    1    2    0    0 -0.43296674459E+03  0.71661341437E+02  0.15767194577E+03  0.50000000000E+03  0.18039957800E+03 0. -1.
 -1000024    1    1    2    0    0  0.43296674459E+03 -0.71661341437E+02 -0.15767194577E+03  0.50000000000E+03  0.18039957800E+03 0.  1.
</event>
<event>
 4   0  0.1092222E-03  0.2236068E+02  0.7957747E-01  0.1516063E+00
      -11   -1    0    0    0    0  0.00000000000E+00  0.00000000000E+00  0.50000000000E+03  0.50000000000E+03  0.00000000000E+00 0.  1.
       11   -1    0    0    0    0 -0.00000000000E+00 -0.00000000000E+00 -0.50000000000E+03  0.50000000000E+03  0.00000000000E+00 0. -1.
  1000024    1    1    2    0    0 -0.45153677331E+03  0.11232083866E+03  0.30896016055E+02  0.50000000000E+03  0.18039957800E+03 0. -1.
 -1000024    1    1    2    0    0  0.45153677331E+03 -0.11232083866E+03 -0.30896016055E+02  0.50000000000E+03  0.18039957800E+03 0.  1.
</event>
<event>
 4   0  0.7366543E-04  0.2236068E+02  0.7957747E-01  0.1516063E+00
      -11   -1    0    0    0    0  0.00000000000E+00  0.00000000000E+00  0.50000000000E+03  0.50000000000E+03  0.00000000000E+00 0.  1.
       11   -1    0    0    0    0 -0.00000000000E+00 -0.00000000000E+00 -0.50000000000E+03  0.50000000000E+03  0.00000000000E+00 0. -1.
  1000024    1    1    2    0    0  0.12305367792E+03 -0.43857229530E+03 -0.99840504810E+02  0.50000000000E+03  0.18039957800E+03 0. -1.
 -1000024    1    1    2    0    0 -0.12305367792E+03  0.43857229530E+03  0.99840504810E+02  0.50000000000E+03  0.18039957800E+03 0.  1.
</event>
<event>
 4   0  0.1092222E-03  0.2236068E+02  0.7957747E-01  0.1516063E+00
      -11   -1    0    0    0    0  0.00000000000E+00  0.00000000000E+00  0.50000000000E+03  0.50000000000E+03  0.00000000000E+00 0.  1.
       11   -1    0    0    0    0 -0.00000000000E+00 -0.00000000000E+00 -0.50000000000E+03  0.50000000000E+03  0.00000000000E+00 0. -1.
  1000024    1    1    2    0    0 -0.46452602945E+03 -0.36158423554E+02 -0.19082154637E+02  0.50000000000E+03  0.18039957800E+03 0. -1.
 -1000024    1    1    2    0    0  0.46452602945E+03  0.36158423554E+02  0.19082154637E+02  0.50000000000E+03  0.18039957800E+03 0.  1.
</event>
<event>
 4   0  0.6712789E-04  0.2236068E+02  0.7957747E-01  0.1516063E+00
      -11   -1    0    0    0    0  0.00000000000E+00  0.00000000000E+00  0.50000000000E+03  0.50000000000E+03  0.00000000000E+00 0.  1.
       11   -1    0    0    0    0 -0.00000000000E+00 -0.00000000000E+00 -0.50000000000E+03  0.50000000000E+03  0.00000000000E+00 0. -1.
  1000024    1    1    2    0    0 -0.43431895251E+03 -0.16976663099E+03  0.15266799896E+01  0.50000000000E+03  0.18039957800E+03 0. -1.
 -1000024    1    1    2    0    0  0.43431895251E+03  0.16976663099E+03 -0.15266799896E+01  0.50000000000E+03  0.18039957800E+03 0.  1.
</event>
<event>
 4   0  0.7366543E-04  0.2236068E+02  0.7957747E-01  0.1516063E+00
      -11   -1    0    0    0    0  0.00000000000E+00  0.00000000000E+00  0.50000000000E+03  0.50000000000E+03  0.00000000000E+00 0.  1.
       11   -1    0    0    0    0 -0.00000000000E+00 -0.00000000000E+00 -0.50000000000E+03  0.50000000000E+03  0.00000000000E+00 0. -1.
  1000024    1    1    2    0    0 -0.10810933170E+02  0.21061964122E+03  0.41590681975E+03  0.50000000000E+03  0.18039957800E+03 0. -1.
 -1000024    1    1    2    0    0  0.10810933170E+02 -0.21061964122E+03 -0.41590681975E+03  0.50000000000E+03  0.18039957800E+03 0.  1.
</event>
<event>
 4   0  0.6712789E-04  0.2236068E+02  0.7957747E-01  0.1516063E+00
      -11   -1    0    0    0    0  0.00000000000E+00  0.00000000000E+00  0.50000000000E+03  0.50000000000E+03  0.00000000000E+00 0.  1.
       11   -1    0    0    0    0 -0.00000000000E+00 -0.00000000000E+00 -0.50000000000E+03  0.50000000000E+03  0.00000000000E+00 0. -1.
  1000024    1    1    2    0    0  0.14364440374E+03 -0.40022432526E+03  0.19142300540E+03  0.50000000000E+03  0.18039957800E+03 0.  1.
 -1000024    1    1    2    0    0 -0.14364440374E+03  0.40022432526E+03 -0.19142300540E+03  0.50000000000E+03  0.18039957800E+03 0. -1.
</event>
<event>
 4   0  0.1092222E-03  0.2236068E+02  0.7957747E-01  0.1516063E+00
      -11   -1    0    0    0    0  0.00000000000E+00  0.00000000000E+00  0.50000000000E+03  0.50000000000E+03  0.00000000000E+00 0.  1.
       11   -1    0    0    0    0 -0.00000000000E+00 -0.00000000000E+00 -0.50000000000E+03  0.50000000000E+03  0.00000000000E+00 0. -1.
  1000024    1    1    2    0    0 -0.43921403374E+03 -0.29960956094E+02  0.15378350344E+03  0.50000000000E+03  0.18039957800E+03 0. -1.
 -1000024    1    1    2    0    0  0.43921403374E+03  0.29960956094E+02 -0.15378350344E+03  0.50000000000E+03  0.18039957800E+03 0.  1.
</event>
<event>
 4   0  0.7366543E-04  0.2236068E+02  0.7957747E-01  0.1516063E+00
      -11   -1    0    0    0    0  0.00000000000E+00  0.00000000000E+00  0.50000000000E+03  0.50000000000E+03  0.00000000000E+00 0.  1.
       11   -1    0    0    0    0 -0.00000000000E+00 -0.00000000000E+00 -0.50000000000E+03  0.50000000000E+03  0.00000000000E+00 0. -1.
  1000024    1    1    2    0    0  0.16631091206E+03 -0.39213612857E+03 -0.18980497742E+03  0.50000000000E+03  0.18039957800E+03 0.  1.
 -1000024    1    1    2    0    0 -0.16631091206E+03  0.39213612857E+03  0.18980497742E+03  0.50000000000E+03  0.18039957800E+03 0. -1.
</event>
<event>
 4   0  0.1092222E-03  0.2236068E+02  0.7957747E-01  0.1516063E+00
      -11   -1    0    0    0    0  0.00000000000E+00  0.00000000000E+00  0.50000000000E+03  0.50000000000E+03  0.00000000000E+00 0.  1.
       11   -1    0    0    0    0 -0.00000000000E+00 -0.00000000000E+00 -0.50000000000E+03  0.50000000000E+03  0.00000000000E+00 0. -1.
  1000024    1    1    2    0    0 -0.22696500566E+03  0.19928818191E+03  0.35528453247E+03  0.50000000000E+03  0.18039957800E+03 0. -1.
 -1000024    1    1    2    0    0  0.22696500566E+03 -0.19928818191E+03 -0.35528453247E+03  0.50000000000E+03  0.18039957800E+03 0.  1.
</event>
<event>
 4   0  0.1092222E-03  0.2236068E+02  0.7957747E-01  0.1516063E+00
      -11   -1    0    0    0    0  0.00000000000E+00  0.00000000000E+00  0.50000000000E+03  0.50000000000E+03  0.00000000000E+00 0.  1.
       11   -1    0    0    0    0 -0.00000000000E+00 -0.00000000000E+00 -0.50000000000E+03  0.50000000000E+03  0.00000000000E+00 0. -1.
  1000024    1    1    2    0    0 -0.53486222983E+02 -0.21597693162E+03  0.40981603338E+03  0.50000000000E+03  0.18039957800E+03 0. -1.
 -1000024    1    1    2    0    0  0.53486222983E+02  0.21597693162E+03 -0.40981603338E+03  0.50000000000E+03  0.18039957800E+03 0. -1.
</event>
<event>
 4   0  0.7366543E-04  0.2236068E+02  0.7957747E-01  0.1516063E+00
      -11   -1    0    0    0    0  0.00000000000E+00  0.00000000000E+00  0.50000000000E+03  0.50000000000E+03  0.00000000000E+00 0.  1.
       11   -1    0    0    0    0 -0.00000000000E+00 -0.00000000000E+00 -0.50000000000E+03  0.50000000000E+03  0.00000000000E+00 0. -1.
  1000024    1    1    2    0    0  0.16026191104E+03 -0.34455767754E+03  0.27028155501E+03  0.50000000000E+03  0.18039957800E+03 0. -1.
 -1000024    1    1    2    0    0 -0.16026191104E+03  0.34455767754E+03 -0.27028155501E+03  0.50000000000E+03  0.18039957800E+03 0.  1.
</event>
<event>
 4   0  0.1092222E-03  0.2236068E+02  0.7957747E-01  0.1516063E+00
      -11   -1    0    0    0    0  0.00000000000E+00  0.00000000000E+00  0.50000000000E+03  0.50000000000E+03  0.00000000000E+00 0.  1.
       11   -1    0    0    0    0 -0.00000000000E+00 -0.00000000000E+00 -0.50000000000E+03  0.50000000000E+03  0.00000000000E+00 0. -1.
  1000024    1    1    2    0    0  0.10518160887E+03 -0.19943469297E+03  0.40818944701E+03  0.50000000000E+03  0.18039957800E+03 0. -1.
 -1000024    1    1    2    0    0 -0.10518160887E+03  0.19943469297E+03 -0.40818944701E+03  0.50000000000E+03  0.18039957800E+03 0. -1.
</event>
<event>
 4   0  0.6712789E-04  0.2236068E+02  0.7957747E-01  0.1516063E+00
      -11   -1    0    0    0    0  0.00000000000E+00  0.00000000000E+00  0.50000000000E+03  0.50000000000E+03  0.00000000000E+00 0.  1.
       11   -1    0    0    0    0 -0.00000000000E+00 -0.00000000000E+00 -0.50000000000E+03  0.50000000000E+03  0.00000000000E+00 0. -1.
  1000024    1    1    2    0    0 -0.77444359654E+01 -0.46585354202E+03 -0.19403436795E+02  0.50000000000E+03  0.18039957800E+03 0. -1.
 -1000024    1    1    2    0    0  0.77444359654E+01  0.46585354202E+03  0.19403436795E+02  0.50000000000E+03  0.18039957800E+03 0.  1.
</event>
<event>
 4   0  0.7366543E-04  0.2236068E+02  0.7957747E-01  0.1516063E+00
      -11   -1    0    0    0    0  0.00000000000E+00  0.00000000000E+00  0.50000000000E+03  0.50000000000E+03  0.00000000000E+00 0.  1.
       11   -1    0    0    0    0 -0.00000000000E+00 -0.00000000000E+00 -0.50000000000E+03  0.50000000000E+03  0.00000000000E+00 0. -1.
  1000024    1    1    2    0    0  0.31908238322E+03 -0.24768800544E+03  0.23300874863E+03  0.50000000000E+03  0.18039957800E+03 0. -1.
 -1000024    1    1    2    0    0 -0.31908238322E+03  0.24768800544E+03 -0.23300874863E+03  0.50000000000E+03  0.18039957800E+03 0.  1.
</event>
<event>
 4   0  0.7366543E-04  0.2236068E+02  0.7957747E-01  0.1516063E+00
      -11   -1    0    0    0    0  0.00000000000E+00  0.00000000000E+00  0.50000000000E+03  0.50000000000E+03  0.00000000000E+00 0.  1.
       11   -1    0    0    0    0 -0.00000000000E+00 -0.00000000000E+00 -0.50000000000E+03  0.50000000000E+03  0.00000000000E+00 0. -1.
  1000024    1    1    2    0    0  0.39277071501E+03  0.24958700841E+03 -0.29891184692E+02  0.50000000000E+03  0.18039957800E+03 0.  1.
 -1000024    1    1    2    0    0 -0.39277071501E+03 -0.24958700841E+03  0.29891184692E+02  0.50000000000E+03  0.18039957800E+03 0. -1.
</event>
<event>
 4   0  0.1092222E-03  0.2236068E+02  0.7957747E-01  0.1516063E+00
      -11   -1    0    0    0    0  0.00000000000E+00  0.00000000000E+00  0.50000000000E+03  0.50000000000E+03  0.00000000000E+00 0.  1.
       11   -1    0    0    0    0 -0.00000000000E+00 -0.00000000000E+00 -0.50000000000E+03  0.50000000000E+03  0.00000000000E+00 0. -1.
  1000024    1    1    2    0    0  0.30214871664E+03  0.82561285211E+02  0.34546458498E+03  0.50000000000E+03  0.18039957800E+03 0.  1.
 -1000024    1    1    2    0    0 -0.30214871664E+03 -0.82561285211E+02 -0.34546458498E+03  0.50000000000E+03  0.18039957800E+03 0.  1.
</event>
<event>
 4   0  0.7366543E-04  0.2236068E+02  0.7957747E-01  0.1516063E+00
      -11   -1    0    0    0    0  0.00000000000E+00  0.00000000000E+00  0.50000000000E+03  0.50000000000E+03  0.00000000000E+00 0.  1.
       11   -1    0    0    0    0 -0.00000000000E+00 -0.00000000000E+00 -0.50000000000E+03  0.50000000000E+03  0.00000000000E+00 0. -1.
  1000024    1    1    2    0    0 -0.17946026789E+03 -0.29885679944E+03  0.30973313987E+03  0.50000000000E+03  0.18039957800E+03 0. -1.
 -1000024    1    1    2    0    0  0.17946026789E+03  0.29885679944E+03 -0.30973313987E+03  0.50000000000E+03  0.18039957800E+03 0.  1.
</event>
<event>
 4   0  0.7366543E-04  0.2236068E+02  0.7957747E-01  0.1516063E+00
      -11   -1    0    0    0    0  0.00000000000E+00  0.00000000000E+00  0.50000000000E+03  0.50000000000E+03  0.00000000000E+00 0.  1.
       11   -1    0    0    0    0 -0.00000000000E+00 -0.00000000000E+00 -0.50000000000E+03  0.50000000000E+03  0.00000000000E+00 0. -1.
  1000024    1    1    2    0    0  0.14490832615E+03  0.37248735609E+03  0.24023059511E+03  0.50000000000E+03  0.18039957800E+03 0. -1.
 -1000024    1    1    2    0    0 -0.14490832615E+03 -0.37248735609E+03 -0.24023059511E+03  0.50000000000E+03  0.18039957800E+03 0.  1.
</event>
<event>
 4   0  0.1092222E-03  0.2236068E+02  0.7957747E-01  0.1516063E+00
      -11   -1    0    0    0    0  0.00000000000E+00  0.00000000000E+00  0.50000000000E+03  0.50000000000E+03  0.00000000000E+00 0.  1.
       11   -1    0    0    0    0 -0.00000000000E+00 -0.00000000000E+00 -0.50000000000E+03  0.50000000000E+03  0.00000000000E+00 0. -1.
  1000024    1    1    2    0    0  0.60966178873E+02  0.33803668758E+03  0.31538914873E+03  0.50000000000E+03  0.18039957800E+03 0. -1.
 -1000024    1    1    2    0    0 -0.60966178873E+02 -0.33803668758E+03 -0.31538914873E+03  0.50000000000E+03  0.18039957800E+03 0.  1.
</event>
<event>
 4   0  0.6712789E-04  0.2236068E+02  0.7957747E-01  0.1516063E+00
      -11   -1    0    0    0    0  0.00000000000E+00  0.00000000000E+00  0.50000000000E+03  0.50000000000E+03  0.00000000000E+00 0.  1.
       11   -1    0    0    0    0 -0.00000000000E+00 -0.00000000000E+00 -0.50000000000E+03  0.50000000000E+03  0.00000000000E+00 0. -1.
  1000024    1    1    2    0    0 -0.39995481270E+03  0.13172358949E+03  0.20035227982E+03  0.50000000000E+03  0.18039957800E+03 0. -1.
 -1000024    1    1    2    0    0  0.39995481270E+03 -0.13172358949E+03 -0.20035227982E+03  0.50000000000E+03  0.18039957800E+03 0.  1.
</event>
<event>
 4   0  0.7366543E-04  0.2236068E+02  0.7957747E-01  0.1516063E+00
      -11   -1    0    0    0    0  0.00000000000E+00  0.00000000000E+00  0.50000000000E+03  0.50000000000E+03  0.00000000000E+00 0.  1.
       11   -1    0    0    0    0 -0.00000000000E+00 -0.00000000000E+00 -0.50000000000E+03  0.50000000000E+03  0.00000000000E+00 0. -1.
  1000024    1    1    2    0    0  0.36775961649E+03 -0.96360375025E+02  0.27004357956E+03  0.50000000000E+03  0.18039957800E+03 0.  1.
 -1000024    1    1    2    0    0 -0.36775961649E+03  0.96360375025E+02 -0.27004357956E+03  0.50000000000E+03  0.18039957800E+03 0. -1.
</event>
<event>
 4   0  0.6712789E-04  0.2236068E+02  0.7957747E-01  0.1516063E+00
      -11   -1    0    0    0    0  0.00000000000E+00  0.00000000000E+00  0.50000000000E+03  0.50000000000E+03  0.00000000000E+00 0.  1.
       11   -1    0    0    0    0 -0.00000000000E+00 -0.00000000000E+00 -0.50000000000E+03  0.50000000000E+03  0.00000000000E+00 0. -1.
  1000024    1    1    2    0    0  0.15780595237E+03  0.29862733384E+03  0.32151981142E+03  0.50000000000E+03  0.18039957800E+03 0.  1.
 -1000024    1    1    2    0    0 -0.15780595237E+03 -0.29862733384E+03 -0.32151981142E+03  0.50000000000E+03  0.18039957800E+03 0. -1.
</event>
<event>
 4   0  0.1092222E-03  0.2236068E+02  0.7957747E-01  0.1516063E+00
      -11   -1    0    0    0    0  0.00000000000E+00  0.00000000000E+00  0.50000000000E+03  0.50000000000E+03  0.00000000000E+00 0.  1.
       11   -1    0    0    0    0 -0.00000000000E+00 -0.00000000000E+00 -0.50000000000E+03  0.50000000000E+03  0.00000000000E+00 0. -1.
  1000024    1    1    2    0    0  0.24331475896E+03 -0.14650418247E+03 -0.36985192287E+03  0.50000000000E+03  0.18039957800E+03 0.  1.
 -1000024    1    1    2    0    0 -0.24331475896E+03  0.14650418247E+03  0.36985192287E+03  0.50000000000E+03  0.18039957800E+03 0. -1.
</event>
<event>
 4   0  0.1092222E-03  0.2236068E+02  0.7957747E-01  0.1516063E+00
      -11   -1    0    0    0    0  0.00000000000E+00  0.00000000000E+00  0.50000000000E+03  0.50000000000E+03  0.00000000000E+00 0.  1.
       11   -1    0    0    0    0 -0.00000000000E+00 -0.00000000000E+00 -0.50000000000E+03  0.50000000000E+03  0.00000000000E+00 0. -1.
  1000024    1    1    2    0    0  0.45224665228E+03  0.60525422521E+01  0.11354437236E+03  0.50000000000E+03  0.18039957800E+03 0. -1.
 -1000024    1    1    2    0    0 -0.45224665228E+03 -0.60525422521E+01 -0.11354437236E+03  0.50000000000E+03  0.18039957800E+03 0.  1.
</event>
<event>
 4   0  0.1092222E-03  0.2236068E+02  0.7957747E-01  0.1516063E+00
      -11   -1    0    0    0    0  0.00000000000E+00  0.00000000000E+00  0.50000000000E+03  0.50000000000E+03  0.00000000000E+00 0.  1.
       11   -1    0    0    0    0 -0.00000000000E+00 -0.00000000000E+00 -0.50000000000E+03  0.50000000000E+03  0.00000000000E+00 0. -1.
  1000024    1    1    2    0    0 -0.21104511102E+03  0.56985781764E+02  0.41190845348E+03  0.50000000000E+03  0.18039957800E+03 0. -1.
 -1000024    1    1    2    0    0  0.21104511102E+03 -0.56985781764E+02 -0.41190845348E+03  0.50000000000E+03  0.18039957800E+03 0. -1.
</event>
<event>
 4   0  0.1092222E-03  0.2236068E+02  0.7957747E-01  0.1516063E+00
      -11   -1    0    0    0    0  0.00000000000E+00  0.00000000000E+00  0.50000000000E+03  0.50000000000E+03  0.00000000000E+00 0.  1.
       11   -1    0    0    0    0 -0.00000000000E+00 -0.00000000000E+00 -0.50000000000E+03  0.50000000000E+03  0.00000000000E+00 0. -1.
  1000024    1    1    2    0    0 -0.38481010627E+03  0.12720681399E+03  0.23064171532E+03  0.50000000000E+03  0.18039957800E+03 0.  1.
 -1000024    1    1    2    0    0  0.38481010627E+03 -0.12720681399E+03 -0.23064171532E+03  0.50000000000E+03  0.18039957800E+03 0. -1.
</event>
<event>
 4   0  0.1092222E-03  0.2236068E+02  0.7957747E-01  0.1516063E+00
      -11   -1    0    0    0    0  0.00000000000E+00  0.00000000000E+00  0.50000000000E+03  0.50000000000E+03  0.00000000000E+00 0.  1.
       11   -1    0    0    0    0 -0.00000000000E+00 -0.00000000000E+00 -0.50000000000E+03  0.50000000000E+03  0.00000000000E+00 0. -1.
  1000024    1    1    2    0    0  0.33334958423E+03 -0.31818057244E+03 -0.71380461393E+02  0.50000000000E+03  0.18039957800E+03 0.  1.
 -1000024    1    1    2    0    0 -0.33334958423E+03  0.31818057244E+03  0.71380461393E+02  0.50000000000E+03  0.18039957800E+03 0. -1.
</event>
<event>
 4   0  0.7366543E-04  0.2236068E+02  0.7957747E-01  0.1516063E+00
      -11   -1    0    0    0    0  0.00000000000E+00  0.00000000000E+00  0.50000000000E+03  0.50000000000E+03  0.00000000000E+00 0.  1.
       11   -1    0    0    0    0 -0.00000000000E+00 -0.00000000000E+00 -0.50000000000E+03  0.50000000000E+03  0.00000000000E+00 0. -1.
  1000024    1    1    2    0    0  0.43650335014E+02 -0.38559636071E+03  0.25858477742E+03  0.50000000000E+03  0.18039957800E+03 0. -1.
 -1000024    1    1    2    0    0 -0.43650335014E+02  0.38559636071E+03 -0.25858477742E+03  0.50000000000E+03  0.18039957800E+03 0.  1.
</event>
<event>
 4   0  0.6712789E-04  0.2236068E+02  0.7957747E-01  0.1516063E+00
      -11   -1    0    0    0    0  0.00000000000E+00  0.00000000000E+00  0.50000000000E+03  0.50000000000E+03  0.00000000000E+00 0.  1.
       11   -1    0    0    0    0 -0.00000000000E+00 -0.00000000000E+00 -0.50000000000E+03  0.50000000000E+03  0.00000000000E+00 0. -1.
  1000024    1    1    2    0    0 -0.23000705285E+03  0.18178572116E+02  0.40524349151E+03  0.50000000000E+03  0.18039957800E+03 0. -1.
 -1000024    1    1    2    0    0  0.23000705285E+03 -0.18178572116E+02 -0.40524349151E+03  0.50000000000E+03  0.18039957800E+03 0.  1.
</event>
<event>
 4   0  0.6712789E-04  0.2236068E+02  0.7957747E-01  0.1516063E+00
      -11   -1    0    0    0    0  0.00000000000E+00  0.00000000000E+00  0.50000000000E+03  0.50000000000E+03  0.00000000000E+00 0.  1.
       11   -1    0    0    0    0 -0.00000000000E+00 -0.00000000000E+00 -0.50000000000E+03  0.50000000000E+03  0.00000000000E+00 0. -1.
  1000024    1    1    2    0    0  0.13340582990E+03  0.44456314144E+03  0.44972103364E+02  0.50000000000E+03  0.18039957800E+03 0. -1.
 -1000024    1    1    2    0    0 -0.13340582990E+03 -0.44456314144E+03 -0.44972103364E+02  0.50000000000E+03  0.18039957800E+03 0.  1.
</event>
<event>
 4   0  0.1092222E-03  0.2236068E+02  0.7957747E-01  0.1516063E+00
      -11   -1    0    0    0    0  0.00000000000E+00  0.00000000000E+00  0.50000000000E+03  0.50000000000E+03  0.00000000000E+00 0.  1.
       11   -1    0    0    0    0 -0.00000000000E+00 -0.00000000000E+00 -0.50000000000E+03  0.50000000000E+03  0.00000000000E+00 0. -1.
  1000024    1    1    2    0    0 -0.20962861901E+03  0.28194569971E+03  0.30662429253E+03  0.50000000000E+03  0.18039957800E+03 0.  1.
 -1000024    1    1    2    0    0  0.20962861901E+03 -0.28194569971E+03 -0.30662429253E+03  0.50000000000E+03  0.18039957800E+03 0.  1.
</event>
<event>
 4   0  0.1092222E-03  0.2236068E+02  0.7957747E-01  0.1516063E+00
      -11   -1    0    0    0    0  0.00000000000E+00  0.00000000000E+00  0.50000000000E+03  0.50000000000E+03  0.00000000000E+00 0.  1.
       11   -1    0    0    0    0 -0.00000000000E+00 -0.00000000000E+00 -0.50000000000E+03  0.50000000000E+03  0.00000000000E+00 0. -1.
  1000024    1    1    2    0    0  0.44422024305E+03  0.30109597096E+02  0.13862820810E+03  0.50000000000E+03  0.18039957800E+03 0.  1.
 -1000024    1    1    2    0    0 -0.44422024305E+03 -0.30109597096E+02 -0.13862820810E+03  0.50000000000E+03  0.18039957800E+03 0. -1.
</event>
<event>
 4   0  0.1092222E-03  0.2236068E+02  0.7957747E-01  0.1516063E+00
      -11   -1    0    0    0    0  0.00000000000E+00  0.00000000000E+00  0.50000000000E+03  0.50000000000E+03  0.00000000000E+00 0.  1.
       11   -1    0    0    0    0 -0.00000000000E+00 -0.00000000000E+00 -0.50000000000E+03  0.50000000000E+03  0.00000000000E+00 0. -1.
  1000024    1    1    2    0    0 -0.29422636479E+03  0.17475478358E+03  0.31677689963E+03  0.50000000000E+03  0.18039957800E+03 0.  1.
 -1000024    1    1    2    0    0  0.29422636479E+03 -0.17475478358E+03 -0.31677689963E+03  0.50000000000E+03  0.18039957800E+03 0. -1.
</event>
<event>
 4   0  0.6712789E-04  0.2236068E+02  0.7957747E-01  0.1516063E+00
      -11   -1    0    0    0    0  0.00000000000E+00  0.00000000000E+00  0.50000000000E+03  0.50000000000E+03  0.00000000000E+00 0.  1.
       11   -1    0    0    0    0 -0.00000000000E+00 -0.00000000000E+00 -0.50000000000E+03  0.50000000000E+03  0.00000000000E+00 0. -1.
  1000024    1    1    2    0    0 -0.20349345542E+03  0.98366816033E+02  0.40788524779E+03  0.50000000000E+03  0.18039957800E+03 0. -1.
 -1000024    1    1    2    0    0  0.20349345542E+03 -0.98366816033E+02 -0.40788524779E+03  0.50000000000E+03  0.18039957800E+03 0. -1.
</event>
<event>
 4   0  0.1092222E-03  0.2236068E+02  0.7957747E-01  0.1516063E+00
      -11   -1    0    0    0    0  0.00000000000E+00  0.00000000000E+00  0.50000000000E+03  0.50000000000E+03  0.00000000000E+00 0.  1.
       11   -1    0    0    0    0 -0.00000000000E+00 -0.00000000000E+00 -0.50000000000E+03  0.50000000000E+03  0.00000000000E+00 0. -1.
  1000024    1    1    2    0    0 -0.31958430624E+03  0.31934185198E+02  0.33808589334E+03  0.50000000000E+03  0.18039957800E+03 0. -1.
 -1000024    1    1    2    0    0  0.31958430624E+03 -0.31934185198E+02 -0.33808589334E+03  0.50000000000E+03  0.18039957800E+03 0.  1.
</event>
<event>
 4   0  0.6712789E-04  0.2236068E+02  0.7957747E-01  0.1516063E+00
      -11   -1    0    0    0    0  0.00000000000E+00  0.00000000000E+00  0.50000000000E+03  0.50000000000E+03  0.00000000000E+00 0.  1.
       11   -1    0    0    0    0 -0.00000000000E+00 -0.00000000000E+00 -0.50000000000E+03  0.50000000000E+03  0.00000000000E+00 0. -1.
  1000024    1    1    2    0    0  0.10395102442E+02 -0.41759132508E+03 -0.20728101534E+03  0.50000000000E+03  0.18039957800E+03 0.  1.
 -1000024    1    1    2    0    0 -0.10395102442E+02  0.41759132508E+03  0.20728101534E+03  0.50000000000E+03  0.18039957800E+03 0. -1.
</event>
<event>
 4   0  0.1092222E-03  0.2236068E+02  0.7957747E-01  0.1516063E+00
      -11   -1    0    0    0    0  0.00000000000E+00  0.00000000000E+00  0.50000000000E+03  0.50000000000E+03  0.00000000000E+00 0.  1.
       11   -1    0    0    0    0 -0.00000000000E+00 -0.00000000000E+00 -0.50000000000E+03  0.50000000000E+03  0.00000000000E+00 0. -1.
  1000024    1    1    2    0    0 -0.21983045228E+03 -0.22293036895E+03  0.34559024163E+03  0.50000000000E+03  0.18039957800E+03 0.  1.
 -1000024    1    1    2    0    0  0.21983045228E+03  0.22293036895E+03 -0.34559024163E+03  0.50000000000E+03  0.18039957800E+03 0.  1.
</event>
<event>
 4   0  0.6712789E-04  0.2236068E+02  0.7957747E-01  0.1516063E+00
      -11   -1    0    0    0    0  0.00000000000E+00  0.00000000000E+00  0.50000000000E+03  0.50000000000E+03  0.00000000000E+00 0.  1.
       11   -1    0    0    0    0 -0.00000000000E+00 -0.00000000000E+00 -0.50000000000E+03  0.50000000000E+03  0.00000000000E+00 0. -1.
  1000024    1    1    2    0    0  0.11333379862E+03  0.39943120344E+03  0.21228790844E+03  0.50000000000E+03  0.18039957800E+03 0.  1.
 -1000024    1    1    2    0    0 -0.11333379862E+03 -0.39943120344E+03 -0.21228790844E+03  0.50000000000E+03  0.18039957800E+03 0. -1.
</event>
<event>
 4   0  0.1092222E-03  0.2236068E+02  0.7957747E-01  0.1516063E+00
      -11   -1    0    0    0    0  0.00000000000E+00  0.00000000000E+00  0.50000000000E+03  0.50000000000E+03  0.00000000000E+00 0.  1.
       11   -1    0    0    0    0 -0.00000000000E+00 -0.00000000000E+00 -0.50000000000E+03  0.50000000000E+03  0.00000000000E+00 0. -1.
  1000024    1    1    2    0    0  0.13427566843E+03  0.86733365216E+02  0.43806775787E+03  0.50000000000E+03  0.18039957800E+03 0.  1.
 -1000024    1    1    2    0    0 -0.13427566843E+03 -0.86733365216E+02 -0.43806775787E+03  0.50000000000E+03  0.18039957800E+03 0.  1.
</event>
<event>
 4   0  0.1092222E-03  0.2236068E+02  0.7957747E-01  0.1516063E+00
      -11   -1    0    0    0    0  0.00000000000E+00  0.00000000000E+00  0.50000000000E+03  0.50000000000E+03  0.00000000000E+00 0.  1.
       11   -1    0    0    0    0 -0.00000000000E+00 -0.00000000000E+00 -0.50000000000E+03  0.50000000000E+03  0.00000000000E+00 0. -1.
  1000024    1    1    2    0    0 -0.15161417882E+03  0.30504907783E+03  0.31845595167E+03  0.50000000000E+03  0.18039957800E+03 0.  1.
 -1000024    1    1    2    0    0  0.15161417882E+03 -0.30504907783E+03 -0.31845595167E+03  0.50000000000E+03  0.18039957800E+03 0. -1.
</event>
<event>
 4   0  0.1092222E-03  0.2236068E+02  0.7957747E-01  0.1516063E+00
      -11   -1    0    0    0    0  0.00000000000E+00  0.00000000000E+00  0.50000000000E+03  0.50000000000E+03  0.00000000000E+00 0.  1.
       11   -1    0    0    0    0 -0.00000000000E+00 -0.00000000000E+00 -0.50000000000E+03  0.50000000000E+03  0.00000000000E+00 0. -1.
  1000024    1    1    2    0    0 -0.88946746887E+02 -0.41910482543E+03  0.18410761467E+03  0.50000000000E+03  0.18039957800E+03 0.  1.
 -1000024    1    1    2    0    0  0.88946746887E+02  0.41910482543E+03 -0.18410761467E+03  0.50000000000E+03  0.18039957800E+03 0. -1.
</event>
<event>
 4   0  0.1092222E-03  0.2236068E+02  0.7957747E-01  0.1516063E+00
      -11   -1    0    0    0    0  0.00000000000E+00  0.00000000000E+00  0.50000000000E+03  0.50000000000E+03  0.00000000000E+00 0.  1.
       11   -1    0    0    0    0 -0.00000000000E+00 -0.00000000000E+00 -0.50000000000E+03  0.50000000000E+03  0.00000000000E+00 0. -1.
  1000024    1    1    2    0    0 -0.36973423366E+03  0.23648922959E+03 -0.15756088666E+03  0.50000000000E+03  0.18039957800E+03 0. -1.
 -1000024    1    1    2    0    0  0.36973423366E+03 -0.23648922959E+03  0.15756088666E+03  0.50000000000E+03  0.18039957800E+03 0.  1.
</event>
<event>
 4   0  0.1092222E-03  0.2236068E+02  0.7957747E-01  0.1516063E+00
      -11   -1    0    0    0    0  0.00000000000E+00  0.00000000000E+00  0.50000000000E+03  0.50000000000E+03  0.00000000000E+00 0.  1.
       11   -1    0    0    0    0 -0.00000000000E+00 -0.00000000000E+00 -0.50000000000E+03  0.50000000000E+03  0.00000000000E+00 0. -1.
  1000024    1    1    2    0    0 -0.12336143191E+03  0.42770488565E+03  0.13894776058E+03  0.50000000000E+03  0.18039957800E+03 0.  1.
 -1000024    1    1    2    0    0  0.12336143191E+03 -0.42770488565E+03 -0.13894776058E+03  0.50000000000E+03  0.18039957800E+03 0. -1.
</event>
<event>
 4   0  0.6712789E-04  0.2236068E+02  0.7957747E-01  0.1516063E+00
      -11   -1    0    0    0    0  0.00000000000E+00  0.00000000000E+00  0.50000000000E+03  0.50000000000E+03  0.00000000000E+00 0.  1.
       11   -1    0    0    0    0 -0.00000000000E+00 -0.00000000000E+00 -0.50000000000E+03  0.50000000000E+03  0.00000000000E+00 0. -1.
  1000024    1    1    2    0    0 -0.49736494213E+02 -0.46343014209E+03  0.14655265305E+02  0.50000000000E+03  0.18039957800E+03 0. -1.
 -1000024    1    1    2    0    0  0.49736494213E+02  0.46343014209E+03 -0.14655265305E+02  0.50000000000E+03  0.18039957800E+03 0.  1.
</event>
<event>
 4   0  0.7366543E-04  0.2236068E+02  0.7957747E-01  0.1516063E+00
      -11   -1    0    0    0    0  0.00000000000E+00  0.00000000000E+00  0.50000000000E+03  0.50000000000E+03  0.00000000000E+00 0.  1.
       11   -1    0    0    0    0 -0.00000000000E+00 -0.00000000000E+00 -0.50000000000E+03  0.50000000000E+03  0.00000000000E+00 0. -1.
  1000024    1    1    2    0    0 -0.29321993606E+03  0.36067995737E+03  0.37256270683E+02  0.50000000000E+03  0.18039957800E+03 0.  1.
 -1000024    1    1    2    0    0  0.29321993606E+03 -0.36067995737E+03 -0.37256270683E+02  0.50000000000E+03  0.18039957800E+03 0. -1.
</event>
<event>
 4   0  0.1092222E-03  0.2236068E+02  0.7957747E-01  0.1516063E+00
      -11   -1    0    0    0    0  0.00000000000E+00  0.00000000000E+00  0.50000000000E+03  0.50000000000E+03  0.00000000000E+00 0.  1.
       11   -1    0    0    0    0 -0.00000000000E+00 -0.00000000000E+00 -0.50000000000E+03  0.50000000000E+03  0.00000000000E+00 0. -1.
  1000024    1    1    2    0    0  0.40888533288E+03  0.20126668177E+03 -0.98795240865E+02  0.50000000000E+03  0.18039957800E+03 0.  1.
 -1000024    1    1    2    0    0 -0.40888533288E+03 -0.20126668177E+03  0.98795240865E+02  0.50000000000E+03  0.18039957800E+03 0. -1.
</event>
<event>
 4   0  0.1092222E-03  0.2236068E+02  0.7957747E-01  0.1516063E+00
      -11   -1    0    0    0    0  0.00000000000E+00  0.00000000000E+00  0.50000000000E+03  0.50000000000E+03  0.00000000000E+00 0.  1.
       11   -1    0    0    0    0 -0.00000000000E+00 -0.00000000000E+00 -0.50000000000E+03  0.50000000000E+03  0.00000000000E+00 0. -1.
  1000024    1    1    2    0    0 -0.50086941898E+01  0.45658950128E+03 -0.94641072275E+02  0.50000000000E+03  0.18039957800E+03 0. -1.
 -1000024    1    1    2    0    0  0.50086941898E+01 -0.45658950128E+03  0.94641072275E+02  0.50000000000E+03  0.18039957800E+03 0.  1.
</event>
<event>
 4   0  0.6712789E-04  0.2236068E+02  0.7957747E-01  0.1516063E+00
      -11   -1    0    0    0    0  0.00000000000E+00  0.00000000000E+00  0.50000000000E+03  0.50000000000E+03  0.00000000000E+00 0.  1.
       11   -1    0    0    0    0 -0.00000000000E+00 -0.00000000000E+00 -0.50000000000E+03  0.50000000000E+03  0.00000000000E+00 0. -1.
  1000024    1    1    2    0    0  0.19706261617E+03 -0.35528938104E+03  0.22889249286E+03  0.50000000000E+03  0.18039957800E+03 0.  1.
 -1000024    1    1    2    0    0 -0.19706261617E+03  0.35528938104E+03 -0.22889249286E+03  0.50000000000E+03  0.18039957800E+03 0. -1.
</event>
<event>
 4   0  0.1092222E-03  0.2236068E+02  0.7957747E-01  0.1516063E+00
      -11   -1    0    0    0    0  0.00000000000E+00  0.00000000000E+00  0.50000000000E+03  0.50000000000E+03  0.00000000000E+00 0.  1.
       11   -1    0    0    0    0 -0.00000000000E+00 -0.00000000000E+00 -0.50000000000E+03  0.50000000000E+03  0.00000000000E+00 0. -1.
  1000024    1    1    2    0    0 -0.16676247958E+03  0.43438718939E+03 -0.30887495126E+02  0.50000000000E+03  0.18039957800E+03 0. -1.
 -1000024    1    1    2    0    0  0.16676247958E+03 -0.43438718939E+03  0.30887495126E+02  0.50000000000E+03  0.18039957800E+03 0.  1.
</event>
<event>
 4   0  0.1092222E-03  0.2236068E+02  0.7957747E-01  0.1516063E+00
      -11   -1    0    0    0    0  0.00000000000E+00  0.00000000000E+00  0.50000000000E+03  0.50000000000E+03  0.00000000000E+00 0.  1.
       11   -1    0    0    0    0 -0.00000000000E+00 -0.00000000000E+00 -0.50000000000E+03  0.50000000000E+03  0.00000000000E+00 0. -1.
  1000024    1    1    2    0    0  0.10640056739E+03 -0.41502506900E+03  0.18408993350E+03  0.50000000000E+03  0.18039957800E+03 0. -1.
 -1000024    1    1    2    0    0 -0.10640056739E+03  0.41502506900E+03 -0.18408993350E+03  0.50000000000E+03  0.18039957800E+03 0.  1.
</event>
<event>
 4   0  0.7366543E-04  0.2236068E+02  0.7957747E-01  0.1516063E+00
      -11   -1    0    0    0    0  0.00000000000E+00  0.00000000000E+00  0.50000000000E+03  0.50000000000E+03  0.00000000000E+00 0.  1.
       11   -1    0    0    0    0 -0.00000000000E+00 -0.00000000000E+00 -0.50000000000E+03  0.50000000000E+03  0.00000000000E+00 0. -1.
  1000024    1    1    2    0    0 -0.24674955572E+02 -0.26222621701E+03  0.38481755409E+03  0.50000000000E+03  0.18039957800E+03 0. -1.
 -1000024    1    1    2    0    0  0.24674955572E+02  0.26222621701E+03 -0.38481755409E+03  0.50000000000E+03  0.18039957800E+03 0. -1.
</event>
<event>
 4   0  0.1092222E-03  0.2236068E+02  0.7957747E-01  0.1516063E+00
      -11   -1    0    0    0    0  0.00000000000E+00  0.00000000000E+00  0.50000000000E+03  0.50000000000E+03  0.00000000000E+00 0.  1.
       11   -1    0    0    0    0 -0.00000000000E+00 -0.00000000000E+00 -0.50000000000E+03  0.50000000000E+03  0.00000000000E+00 0. -1.
  1000024    1    1    2    0    0  0.36945060391E+03  0.28327482949E+03  0.26788327815E+02  0.50000000000E+03  0.18039957800E+03 0. -1.
 -1000024    1    1    2    0    0 -0.36945060391E+03 -0.28327482949E+03 -0.26788327815E+02  0.50000000000E+03  0.18039957800E+03 0.  1.
</event>
<event>
 4   0  0.7366543E-04  0.2236068E+02  0.7957747E-01  0.1516063E+00
      -11   -1    0    0    0    0  0.00000000000E+00  0.00000000000E+00  0.50000000000E+03  0.50000000000E+03  0.00000000000E+00 0.  1.
       11   -1    0    0    0    0 -0.00000000000E+00 -0.00000000000E+00 -0.50000000000E+03  0.50000000000E+03  0.00000000000E+00 0. -1.
  1000024    1    1    2    0    0  0.19373026985E+02 -0.29593900959E+03  0.35986216901E+03  0.50000000000E+03  0.18039957800E+03 0.  1.
 -1000024    1    1    2    0    0 -0.19373026985E+02  0.29593900959E+03 -0.35986216901E+03  0.50000000000E+03  0.18039957800E+03 0. -1.
</event>
<event>
 4   0  0.1092222E-03  0.2236068E+02  0.7957747E-01  0.1516063E+00
      -11   -1    0    0    0    0  0.00000000000E+00  0.00000000000E+00  0.50000000000E+03  0.50000000000E+03  0.00000000000E+00 0.  1.
       11   -1    0    0    0    0 -0.00000000000E+00 -0.00000000000E+00 -0.50000000000E+03  0.50000000000E+03  0.00000000000E+00 0. -1.
  1000024    1    1    2    0    0 -0.38432490776E+03  0.26280354807E+03  0.26165868192E+02  0.50000000000E+03  0.18039957800E+03 0.  1.
 -1000024    1    1    2    0    0  0.38432490776E+03 -0.26280354807E+03 -0.26165868192E+02  0.50000000000E+03  0.18039957800E+03 0. -1.
</event>
<event>
 4   0  0.7366543E-04  0.2236068E+02  0.7957747E-01  0.1516063E+00
      -11   -1    0    0    0    0  0.00000000000E+00  0.00000000000E+00  0.50000000000E+03  0.50000000000E+03  0.00000000000E+00 0.  1.
       11   -1    0    0    0    0 -0.00000000000E+00 -0.00000000000E+00 -0.50000000000E+03  0.50000000000E+03  0.00000000000E+00 0. -1.
  1000024    1    1    2    0    0  0.83232769377E+01 -0.25555998962E+03  0.38996898213E+03  0.50000000000E+03  0.18039957800E+03 0. -1.
 -1000024    1    1    2    0    0 -0.83232769377E+01  0.25555998962E+03 -0.38996898213E+03  0.50000000000E+03  0.18039957800E+03 0. -1.
</event>
<event>
 4   0  0.1092222E-03  0.2236068E+02  0.7957747E-01  0.1516063E+00
      -11   -1    0    0    0    0  0.00000000000E+00  0.00000000000E+00  0.50000000000E+03  0.50000000000E+03  0.00000000000E+00 0.  1.
       11   -1    0    0    0    0 -0.00000000000E+00 -0.00000000000E+00 -0.50000000000E+03  0.50000000000E+03  0.00000000000E+00 0. -1.
  1000024    1    1    2    0    0 -0.19684325583E+03 -0.42226611642E+03 -0.20001295346E+02  0.50000000000E+03  0.18039957800E+03 0.  1.
 -1000024    1    1    2    0    0  0.19684325583E+03  0.42226611642E+03  0.20001295346E+02  0.50000000000E+03  0.18039957800E+03 0. -1.
</event>
<event>
 4   0  0.1092222E-03  0.2236068E+02  0.7957747E-01  0.1516063E+00
      -11   -1    0    0    0    0  0.00000000000E+00  0.00000000000E+00  0.50000000000E+03  0.50000000000E+03  0.00000000000E+00 0.  1.
       11   -1    0    0    0    0 -0.00000000000E+00 -0.00000000000E+00 -0.50000000000E+03  0.50000000000E+03  0.00000000000E+00 0. -1.
  1000024    1    1    2    0    0 -0.98948913054E+01 -0.26643182785E+03  0.38258615303E+03  0.50000000000E+03  0.18039957800E+03 0.  1.
 -1000024    1    1    2    0    0  0.98948913054E+01  0.26643182785E+03 -0.38258615303E+03  0.50000000000E+03  0.18039957800E+03 0. -1.
</event>
<event>
 4   0  0.6712789E-04  0.2236068E+02  0.7957747E-01  0.1516063E+00
      -11   -1    0    0    0    0  0.00000000000E+00  0.00000000000E+00  0.50000000000E+03  0.50000000000E+03  0.00000000000E+00 0.  1.
       11   -1    0    0    0    0 -0.00000000000E+00 -0.00000000000E+00 -0.50000000000E+03  0.50000000000E+03  0.00000000000E+00 0. -1.
  1000024    1    1    2    0    0  0.39883827665E+03 -0.93362653051E+02  0.22286192217E+03  0.50000000000E+03  0.18039957800E+03 0. -1.
 -1000024    1    1    2    0    0 -0.39883827665E+03  0.93362653051E+02 -0.22286192217E+03  0.50000000000E+03  0.18039957800E+03 0.  1.
</event>
<event>
 4   0  0.1092222E-03  0.2236068E+02  0.7957747E-01  0.1516063E+00
      -11   -1    0    0    0    0  0.00000000000E+00  0.00000000000E+00  0.50000000000E+03  0.50000000000E+03  0.00000000000E+00 0.  1.
       11   -1    0    0    0    0 -0.00000000000E+00 -0.00000000000E+00 -0.50000000000E+03  0.50000000000E+03  0.00000000000E+00 0. -1.
  1000024    1    1    2    0    0  0.78926571665E+02  0.25558156109E+03  0.38197467740E+03  0.50000000000E+03  0.18039957800E+03 0.  1.
 -1000024    1    1    2    0    0 -0.78926571665E+02 -0.25558156109E+03 -0.38197467740E+03  0.50000000000E+03  0.18039957800E+03 0. -1.
</event>
<event>
 4   0  0.1092222E-03  0.2236068E+02  0.7957747E-01  0.1516063E+00
      -11   -1    0    0    0    0  0.00000000000E+00  0.00000000000E+00  0.50000000000E+03  0.50000000000E+03  0.00000000000E+00 0.  1.
       11   -1    0    0    0    0 -0.00000000000E+00 -0.00000000000E+00 -0.50000000000E+03  0.50000000000E+03  0.00000000000E+00 0. -1.
  1000024    1    1    2    0    0 -0.23397507285E+03 -0.21616085483E+03  0.34056738303E+03  0.50000000000E+03  0.18039957800E+03 0. -1.
 -1000024    1    1    2    0    0  0.23397507285E+03  0.21616085483E+03 -0.34056738303E+03  0.50000000000E+03  0.18039957800E+03 0. -1.
</event>
<event>
 4   0  0.1092222E-03  0.2236068E+02  0.7957747E-01  0.1516063E+00
      -11   -1    0    0    0    0  0.00000000000E+00  0.00000000000E+00  0.50000000000E+03  0.50000000000E+03  0.00000000000E+00 0.  1.
       11   -1    0    0    0    0 -0.00000000000E+00 -0.00000000000E+00 -0.50000000000E+03  0.50000000000E+03  0.00000000000E+00 0. -1.
  1000024    1    1    2    0    0 -0.90981538952E+02  0.31478416249E+03  0.33179705073E+03  0.50000000000E+03  0.18039957800E+03 0. -1.
 -1000024    1    1    2    0    0  0.90981538952E+02 -0.31478416249E+03 -0.33179705073E+03  0.50000000000E+03  0.18039957800E+03 0.  1.
</event>
<event>
 4   0  0.6712789E-04  0.2236068E+02  0.7957747E-01  0.1516063E+00
      -11   -1    0    0    0    0  0.00000000000E+00  0.00000000000E+00  0.50000000000E+03  0.50000000000E+03  0.00000000000E+00 0.  1.
       11   -1    0    0    0    0 -0.00000000000E+00 -0.00000000000E+00 -0.50000000000E+03  0.50000000000E+03  0.00000000000E+00 0. -1.
  1000024    1    1    2    0    0  0.28041803918E+03 -0.36835883675E+03 -0.55977521796E+02  0.50000000000E+03  0.18039957800E+03 0. -1.
 -1000024    1    1    2    0    0 -0.28041803918E+03  0.36835883675E+03  0.55977521796E+02  0.50000000000E+03  0.18039957800E+03 0.  1.
</event>
<event>
 4   0  0.1092222E-03  0.2236068E+02  0.7957747E-01  0.1516063E+00
      -11   -1    0    0    0    0  0.00000000000E+00  0.00000000000E+00  0.50000000000E+03  0.50000000000E+03  0.00000000000E+00 0.  1.
       11   -1    0    0    0    0 -0.00000000000E+00 -0.00000000000E+00 -0.50000000000E+03  0.50000000000E+03  0.00000000000E+00 0. -1.
  1000024    1    1    2    0    0  0.23272590839E+03  0.40385443136E+03  0.14008643534E+02  0.50000000000E+03  0.18039957800E+03 0. -1.
 -1000024    1    1    2    0    0 -0.23272590839E+03 -0.40385443136E+03 -0.14008643534E+02  0.50000000000E+03  0.18039957800E+03 0.  1.
</event>
<event>
 4   0  0.6712789E-04  0.2236068E+02  0.7957747E-01  0.1516063E+00
      -11   -1    0    0    0    0  0.00000000000E+00  0.00000000000E+00  0.50000000000E+03  0.50000000000E+03  0.00000000000E+00 0.  1.
       11   -1    0    0    0    0 -0.00000000000E+00 -0.00000000000E+00 -0.50000000000E+03  0.50000000000E+03  0.00000000000E+00 0. -1.
  1000024    1    1    2    0    0  0.41690251395E+03 -0.19590129581E+03  0.72601435407E+02  0.50000000000E+03  0.18039957800E+03 0.  1.
 -1000024    1    1    2    0    0 -0.41690251395E+03  0.19590129581E+03 -0.72601435407E+02  0.50000000000E+03  0.18039957800E+03 0. -1.
</event>
<event>
 4   0  0.7366543E-04  0.2236068E+02  0.7957747E-01  0.1516063E+00
      -11   -1    0    0    0    0  0.00000000000E+00  0.00000000000E+00  0.50000000000E+03  0.50000000000E+03  0.00000000000E+00 0.  1.
       11   -1    0    0    0    0 -0.00000000000E+00 -0.00000000000E+00 -0.50000000000E+03  0.50000000000E+03  0.00000000000E+00 0. -1.
  1000024    1    1    2    0    0  0.41440597932E+03 -0.13806407977E+03 -0.16328498534E+03  0.50000000000E+03  0.18039957800E+03 0.  1.
 -1000024    1    1    2    0    0 -0.41440597932E+03  0.13806407977E+03  0.16328498534E+03  0.50000000000E+03  0.18039957800E+03 0. -1.
</event>
<event>
 4   0  0.1092222E-03  0.2236068E+02  0.7957747E-01  0.1516063E+00
      -11   -1    0    0    0    0  0.00000000000E+00  0.00000000000E+00  0.50000000000E+03  0.50000000000E+03  0.00000000000E+00 0.  1.
       11   -1    0    0    0    0 -0.00000000000E+00 -0.00000000000E+00 -0.50000000000E+03  0.50000000000E+03  0.00000000000E+00 0. -1.
  1000024    1    1    2    0    0  0.35229989555E+03 -0.23585629891E+03  0.19419727628E+03  0.50000000000E+03  0.18039957800E+03 0. -1.
 -1000024    1    1    2    0    0 -0.35229989555E+03  0.23585629891E+03 -0.19419727628E+03  0.50000000000E+03  0.18039957800E+03 0.  1.
</event>
<event>
 4   0  0.1092222E-03  0.2236068E+02  0.7957747E-01  0.1516063E+00
      -11   -1    0    0    0    0  0.00000000000E+00  0.00000000000E+00  0.50000000000E+03  0.50000000000E+03  0.00000000000E+00 0.  1.
       11   -1    0    0    0    0 -0.00000000000E+00 -0.00000000000E+00 -0.50000000000E+03  0.50000000000E+03  0.00000000000E+00 0. -1.
  1000024    1    1    2    0    0 -0.44014621451E+03 -0.67002643065E+02  0.13870092981E+03  0.50000000000E+03  0.18039957800E+03 0. -1.
 -1000024    1    1    2    0    0  0.44014621451E+03  0.67002643065E+02 -0.13870092981E+03  0.50000000000E+03  0.18039957800E+03 0.  1.
</event>
<event>
 4   0  0.6712789E-04  0.2236068E+02  0.7957747E-01  0.1516063E+00
      -11   -1    0    0    0    0  0.00000000000E+00  0.00000000000E+00  0.50000000000E+03  0.50000000000E+03  0.00000000000E+00 0.  1.
       11   -1    0    0    0    0 -0.00000000000E+00 -0.00000000000E+00 -0.50000000000E+03  0.50000000000E+03  0.00000000000E+00 0. -1.
  1000024    1    1    2    0    0  0.17521189950E+03 -0.36933500542E+03  0.22438457234E+03  0.50000000000E+03  0.18039957800E+03 0.  1.
 -1000024    1    1    2    0    0 -0.17521189950E+03  0.36933500542E+03 -0.22438457234E+03  0.50000000000E+03  0.18039957800E+03 0. -1.
</event>
<event>
 4   0  0.7366543E-04  0.2236068E+02  0.7957747E-01  0.1516063E+00
      -11   -1    0    0    0    0  0.00000000000E+00  0.00000000000E+00  0.50000000000E+03  0.50000000000E+03  0.00000000000E+00 0.  1.
       11   -1    0    0    0    0 -0.00000000000E+00 -0.00000000000E+00 -0.50000000000E+03  0.50000000000E+03  0.00000000000E+00 0. -1.
  1000024    1    1    2    0    0  0.21963494577E+03  0.22048186723E+03  0.34728119597E+03  0.50000000000E+03  0.18039957800E+03 0.  1.
 -1000024    1    1    2    0    0 -0.21963494577E+03 -0.22048186723E+03 -0.34728119597E+03  0.50000000000E+03  0.18039957800E+03 0. -1.
</event>
<event>
 4   0  0.1092222E-03  0.2236068E+02  0.7957747E-01  0.1516063E+00
      -11   -1    0    0    0    0  0.00000000000E+00  0.00000000000E+00  0.50000000000E+03  0.50000000000E+03  0.00000000000E+00 0.  1.
       11   -1    0    0    0    0 -0.00000000000E+00 -0.00000000000E+00 -0.50000000000E+03  0.50000000000E+03  0.00000000000E+00 0. -1.
  1000024    1    1    2    0    0 -0.43523821080E+03 -0.11719630460E+03  0.11953542700E+03  0.50000000000E+03  0.18039957800E+03 0.  1.
 -1000024    1    1    2    0    0  0.43523821080E+03  0.11719630460E+03 -0.11953542700E+03  0.50000000000E+03  0.18039957800E+03 0. -1.
</event>
<event>
 4   0  0.1092222E-03  0.2236068E+02  0.7957747E-01  0.1516063E+00
      -11   -1    0    0    0    0  0.00000000000E+00  0.00000000000E+00  0.50000000000E+03  0.50000000000E+03  0.00000000000E+00 0.  1.
       11   -1    0    0    0    0 -0.00000000000E+00 -0.00000000000E+00 -0.50000000000E+03  0.50000000000E+03  0.00000000000E+00 0. -1.
  1000024    1    1    2    0    0 -0.19528847224E+03 -0.37874155595E+03  0.18940231958E+03  0.50000000000E+03  0.18039957800E+03 0. -1.
 -1000024    1    1    2    0    0  0.19528847224E+03  0.37874155595E+03 -0.18940231958E+03  0.50000000000E+03  0.18039957800E+03 0.  1.
</event>
<event>
 4   0  0.1092222E-03  0.2236068E+02  0.7957747E-01  0.1516063E+00
      -11   -1    0    0    0    0  0.00000000000E+00  0.00000000000E+00  0.50000000000E+03  0.50000000000E+03  0.00000000000E+00 0.  1.
       11   -1    0    0    0    0 -0.00000000000E+00 -0.00000000000E+00 -0.50000000000E+03  0.50000000000E+03  0.00000000000E+00 0. -1.
  1000024    1    1    2    0    0  0.19967385047E+03  0.42081827131E+03 -0.22323266411E+02  0.50000000000E+03  0.18039957800E+03 0.  1.
 -1000024    1    1    2    0    0 -0.19967385047E+03 -0.42081827131E+03  0.22323266411E+02  0.50000000000E+03  0.18039957800E+03 0. -1.
</event>
<event>
 4   0  0.1092222E-03  0.2236068E+02  0.7957747E-01  0.1516063E+00
      -11   -1    0    0    0    0  0.00000000000E+00  0.00000000000E+00  0.50000000000E+03  0.50000000000E+03  0.00000000000E+00 0.  1.
       11   -1    0    0    0    0 -0.00000000000E+00 -0.00000000000E+00 -0.50000000000E+03  0.50000000000E+03  0.00000000000E+00 0. -1.
  1000024    1    1    2    0    0  0.18588611555E+03 -0.35786718225E+03 -0.23416537783E+03  0.50000000000E+03  0.18039957800E+03 0.  1.
 -1000024    1    1    2    0    0 -0.18588611555E+03  0.35786718225E+03  0.23416537783E+03  0.50000000000E+03  0.18039957800E+03 0. -1.
</event>
<event>
 4   0  0.1092222E-03  0.2236068E+02  0.7957747E-01  0.1516063E+00
      -11   -1    0    0    0    0  0.00000000000E+00  0.00000000000E+00  0.50000000000E+03  0.50000000000E+03  0.00000000000E+00 0.  1.
       11   -1    0    0    0    0 -0.00000000000E+00 -0.00000000000E+00 -0.50000000000E+03  0.50000000000E+03  0.00000000000E+00 0. -1.
  1000024    1    1    2    0    0  0.44635960184E+03 -0.26770359627E+02  0.13229681004E+03  0.50000000000E+03  0.18039957800E+03 0.  1.
 -1000024    1    1    2    0    0 -0.44635960184E+03  0.26770359627E+02 -0.13229681004E+03  0.50000000000E+03  0.18039957800E+03 0. -1.
</event>
<event>
 4   0  0.1092222E-03  0.2236068E+02  0.7957747E-01  0.1516063E+00
      -11   -1    0    0    0    0  0.00000000000E+00  0.00000000000E+00  0.50000000000E+03  0.50000000000E+03  0.00000000000E+00 0.  1.
       11   -1    0    0    0    0 -0.00000000000E+00 -0.00000000000E+00 -0.50000000000E+03  0.50000000000E+03  0.00000000000E+00 0. -1.
  1000024    1    1    2    0    0 -0.40438356416E+03  0.79675950438E+01  0.23209145336E+03  0.50000000000E+03  0.18039957800E+03 0. -1.
 -1000024    1    1    2    0    0  0.40438356416E+03 -0.79675950438E+01 -0.23209145336E+03  0.50000000000E+03  0.18039957800E+03 0.  1.
</event>
<event>
 4   0  0.6712789E-04  0.2236068E+02  0.7957747E-01  0.1516063E+00
      -11   -1    0    0    0    0  0.00000000000E+00  0.00000000000E+00  0.50000000000E+03  0.50000000000E+03  0.00000000000E+00 0.  1.
       11   -1    0    0    0    0 -0.00000000000E+00 -0.00000000000E+00 -0.50000000000E+03  0.50000000000E+03  0.00000000000E+00 0. -1.
  1000024    1    1    2    0    0 -0.32807702656E+03 -0.32478021041E+03 -0.65873149522E+02  0.50000000000E+03  0.18039957800E+03 0.  1.
 -1000024    1    1    2    0    0  0.32807702656E+03  0.32478021041E+03  0.65873149522E+02  0.50000000000E+03  0.18039957800E+03 0. -1.
</event>
<event>
 4   0  0.1092222E-03  0.2236068E+02  0.7957747E-01  0.1516063E+00
      -11   -1    0    0    0    0  0.00000000000E+00  0.00000000000E+00  0.50000000000E+03  0.50000000000E+03  0.00000000000E+00 0.  1.
       11   -1    0    0    0    0 -0.00000000000E+00 -0.00000000000E+00 -0.50000000000E+03  0.50000000000E+03  0.00000000000E+00 0. -1.
  1000024    1    1    2    0    0 -0.59285080738E+02 -0.32226279882E+03  0.33179505716E+03  0.50000000000E+03  0.18039957800E+03 0. -1.
 -1000024    1    1    2    0    0  0.59285080738E+02  0.32226279882E+03 -0.33179505716E+03  0.50000000000E+03  0.18039957800E+03 0.  1.
</event>
<event>
 4   0  0.1092222E-03  0.2236068E+02  0.7957747E-01  0.1516063E+00
      -11   -1    0    0    0    0  0.00000000000E+00  0.00000000000E+00  0.50000000000E+03  0.50000000000E+03  0.00000000000E+00 0.  1.
       11   -1    0    0    0    0 -0.00000000000E+00 -0.00000000000E+00 -0.50000000000E+03  0.50000000000E+03  0.00000000000E+00 0. -1.
  1000024    1    1    2    0    0 -0.28293155069E+03 -0.28835887851E+03  0.23292678477E+03  0.50000000000E+03  0.18039957800E+03 0.  1.
 -1000024    1    1    2    0    0  0.28293155069E+03  0.28835887851E+03 -0.23292678477E+03  0.50000000000E+03  0.18039957800E+03 0. -1.
</event>
<event>
 4   0  0.1092222E-03  0.2236068E+02  0.7957747E-01  0.1516063E+00
      -11   -1    0    0    0    0  0.00000000000E+00  0.00000000000E+00  0.50000000000E+03  0.50000000000E+03  0.00000000000E+00 0.  1.
       11   -1    0    0    0    0 -0.00000000000E+00 -0.00000000000E+00 -0.50000000000E+03  0.50000000000E+03  0.00000000000E+00 0. -1.
  1000024    1    1    2    0    0 -0.46565196462E+03  0.12881782812E+02  0.21407937169E+02  0.50000000000E+03  0.18039957800E+03 0.  1.
 -1000024    1    1    2    0    0  0.46565196462E+03 -0.12881782812E+02 -0.21407937169E+02  0.50000000000E+03  0.18039957800E+03 0. -1.
</event>
<event>
 4   0  0.7366543E-04  0.2236068E+02  0.7957747E-01  0.1516063E+00
      -11   -1    0    0    0    0  0.00000000000E+00  0.00000000000E+00  0.50000000000E+03  0.50000000000E+03  0.00000000000E+00 0.  1.
       11   -1    0    0    0    0 -0.00000000000E+00 -0.00000000000E+00 -0.50000000000E+03  0.50000000000E+03  0.00000000000E+00 0. -1.
  1000024    1    1    2    0    0  0.11569519523E+03 -0.39106284293E+03  0.22614258099E+03  0.50000000000E+03  0.18039957800E+03 0. -1.
 -1000024    1    1    2    0    0 -0.11569519523E+03  0.39106284293E+03 -0.22614258099E+03  0.50000000000E+03  0.18039957800E+03 0.  1.
</event>
<event>
 4   0  0.1092222E-03  0.2236068E+02  0.7957747E-01  0.1516063E+00
      -11   -1    0    0    0    0  0.00000000000E+00  0.00000000000E+00  0.50000000000E+03  0.50000000000E+03  0.00000000000E+00 0.  1.
       11   -1    0    0    0    0 -0.00000000000E+00 -0.00000000000E+00 -0.50000000000E+03  0.50000000000E+03  0.00000000000E+00 0. -1.
  1000024    1    1    2    0    0  0.63988575277E+02 -0.38777689059E+03  0.25097915773E+03  0.50000000000E+03  0.18039957800E+03 0.  1.
 -1000024    1    1    2    0    0 -0.63988575277E+02  0.38777689059E+03 -0.25097915773E+03  0.50000000000E+03  0.18039957800E+03 0.  1.
</event>
<event>
 4   0  0.1092222E-03  0.2236068E+02  0.7957747E-01  0.1516063E+00
      -11   -1    0    0    0    0  0.00000000000E+00  0.00000000000E+00  0.50000000000E+03  0.50000000000E+03  0.00000000000E+00 0.  1.
       11   -1    0    0    0    0 -0.00000000000E+00 -0.00000000000E+00 -0.50000000000E+03  0.50000000000E+03  0.00000000000E+00 0. -1.
  1000024    1    1    2    0    0 -0.79904386168E+02  0.44747572480E+03 -0.10409974563E+03  0.50000000000E+03  0.18039957800E+03 0.  1.
 -1000024    1    1    2    0    0  0.79904386168E+02 -0.44747572480E+03  0.10409974563E+03  0.50000000000E+03  0.18039957800E+03 0. -1.
</event>
<event>
 4   0  0.1092222E-03  0.2236068E+02  0.7957747E-01  0.1516063E+00
      -11   -1    0    0    0    0  0.00000000000E+00  0.00000000000E+00  0.50000000000E+03  0.50000000000E+03  0.00000000000E+00 0.  1.
       11   -1    0    0    0    0 -0.00000000000E+00 -0.00000000000E+00 -0.50000000000E+03  0.50000000000E+03  0.00000000000E+00 0. -1.
  1000024    1    1    2    0    0  0.33812834674E+03 -0.17244222222E+03  0.27090384527E+03  0.50000000000E+03  0.18039957800E+03 0. -1.
 -1000024    1    1    2    0    0 -0.33812834674E+03  0.17244222222E+03 -0.27090384527E+03  0.50000000000E+03  0.18039957800E+03 0.  1.
</event>
<event>
 4   0  0.6712789E-04  0.2236068E+02  0.7957747E-01  0.1516063E+00
      -11   -1    0    0    0    0  0.00000000000E+00  0.00000000000E+00  0.50000000000E+03  0.50000000000E+03  0.00000000000E+00 0.  1.
       11   -1    0    0    0    0 -0.00000000000E+00 -0.00000000000E+00 -0.50000000000E+03  0.50000000000E+03  0.00000000000E+00 0. -1.
  1000024    1    1    2    0    0 -0.30794965431E+03 -0.27212276066E+03  0.22039102931E+03  0.50000000000E+03  0.18039957800E+03 0.  1.
 -1000024    1    1    2    0    0  0.30794965431E+03  0.27212276066E+03 -0.22039102931E+03  0.50000000000E+03  0.18039957800E+03 0. -1.
</event>
<event>
 4   0  0.7366543E-04  0.2236068E+02  0.7957747E-01  0.1516063E+00
      -11   -1    0    0    0    0  0.00000000000E+00  0.00000000000E+00  0.50000000000E+03  0.50000000000E+03  0.00000000000E+00 0.  1.
       11   -1    0    0    0    0 -0.00000000000E+00 -0.00000000000E+00 -0.50000000000E+03  0.50000000000E+03  0.00000000000E+00 0. -1.
  1000024    1    1    2    0    0 -0.18056046410E+03 -0.35910023023E+03  0.23643378716E+03  0.50000000000E+03  0.18039957800E+03 0.  1.
 -1000024    1    1    2    0    0  0.18056046410E+03  0.35910023023E+03 -0.23643378716E+03  0.50000000000E+03  0.18039957800E+03 0. -1.
</event>
<event>
 4   0  0.1092222E-03  0.2236068E+02  0.7957747E-01  0.1516063E+00
      -11   -1    0    0    0    0  0.00000000000E+00  0.00000000000E+00  0.50000000000E+03  0.50000000000E+03  0.00000000000E+00 0.  1.
       11   -1    0    0    0    0 -0.00000000000E+00 -0.00000000000E+00 -0.50000000000E+03  0.50000000000E+03  0.00000000000E+00 0. -1.
  1000024    1    1    2    0    0  0.39429582370E+03 -0.20805303429E+03  0.13675061460E+03  0.50000000000E+03  0.18039957800E+03 0.  1.
 -1000024    1    1    2    0    0 -0.39429582370E+03  0.20805303429E+03 -0.13675061460E+03  0.50000000000E+03  0.18039957800E+03 0. -1.
</event>
<event>
 4   0  0.6712789E-04  0.2236068E+02  0.7957747E-01  0.1516063E+00
      -11   -1    0    0    0    0  0.00000000000E+00  0.00000000000E+00  0.50000000000E+03  0.50000000000E+03  0.00000000000E+00 0.  1.
       11   -1    0    0    0    0 -0.00000000000E+00 -0.00000000000E+00 -0.50000000000E+03  0.50000000000E+03  0.00000000000E+00 0. -1.
  1000024    1    1    2    0    0 -0.41054816045E+03 -0.21968278822E+03 -0.25410091831E+02  0.50000000000E+03  0.18039957800E+03 0.  1.
 -1000024    1    1    2    0    0  0.41054816045E+03  0.21968278822E+03  0.25410091831E+02  0.50000000000E+03  0.18039957800E+03 0. -1.
</event>
<event>
 4   0  0.7366543E-04  0.2236068E+02  0.7957747E-01  0.1516063E+00
      -11   -1    0    0    0    0  0.00000000000E+00  0.00000000000E+00  0.50000000000E+03  0.50000000000E+03  0.00000000000E+00 0.  1.
       11   -1    0    0    0    0 -0.00000000000E+00 -0.00000000000E+00 -0.50000000000E+03  0.50000000000E+03  0.00000000000E+00 0. -1.
  1000024    1    1    2    0    0  0.17877910536E+03 -0.37703772753E+03  0.20817438786E+03  0.50000000000E+03  0.18039957800E+03 0.  1.
 -1000024    1    1    2    0    0 -0.17877910536E+03  0.37703772753E+03 -0.20817438786E+03  0.50000000000E+03  0.18039957800E+03 0. -1.
</event>
<event>
 4   0  0.7366543E-04  0.2236068E+02  0.7957747E-01  0.1516063E+00
      -11   -1    0    0    0    0  0.00000000000E+00  0.00000000000E+00  0.50000000000E+03  0.50000000000E+03  0.00000000000E+00 0.  1.
       11   -1    0    0    0    0 -0.00000000000E+00 -0.00000000000E+00 -0.50000000000E+03  0.50000000000E+03  0.00000000000E+00 0. -1.
  1000024    1    1    2    0    0 -0.35293666646E+03 -0.27388974123E+03 -0.13370157581E+03  0.50000000000E+03  0.18039957800E+03 0.  1.
 -1000024    1    1    2    0    0  0.35293666646E+03  0.27388974123E+03  0.13370157581E+03  0.50000000000E+03  0.18039957800E+03 0. -1.
</event>
<event>
 4   0  0.6712789E-04  0.2236068E+02  0.7957747E-01  0.1516063E+00
      -11   -1    0    0    0    0  0.00000000000E+00  0.00000000000E+00  0.50000000000E+03  0.50000000000E+03  0.00000000000E+00 0.  1.
       11   -1    0    0    0    0 -0.00000000000E+00 -0.00000000000E+00 -0.50000000000E+03  0.50000000000E+03  0.00000000000E+00 0. -1.
  1000024    1    1    2    0    0 -0.12310107991E+02  0.37073636613E+03  0.28259334799E+03  0.50000000000E+03  0.18039957800E+03 0.  1.
 -1000024    1    1    2    0    0  0.12310107991E+02 -0.37073636613E+03 -0.28259334799E+03  0.50000000000E+03  0.18039957800E+03 0. -1.
</event>
<event>
 4   0  0.1092222E-03  0.2236068E+02  0.7957747E-01  0.1516063E+00
      -11   -1    0    0    0    0  0.00000000000E+00  0.00000000000E+00  0.50000000000E+03  0.50000000000E+03  0.00000000000E+00 0.  1.
       11   -1    0    0    0    0 -0.00000000000E+00 -0.00000000000E+00 -0.50000000000E+03  0.50000000000E+03  0.00000000000E+00 0. -1.
  1000024    1    1    2    0    0  0.18771816569E+03 -0.10276166033E+03  0.41431621221E+03  0.50000000000E+03  0.18039957800E+03 0.  1.
 -1000024    1    1    2    0    0 -0.18771816569E+03  0.10276166033E+03 -0.41431621221E+03  0.50000000000E+03  0.18039957800E+03 0.  1.
</event>
<event>
 4   0  0.6712789E-04  0.2236068E+02  0.7957747E-01  0.1516063E+00
      -11   -1    0    0    0    0  0.00000000000E+00  0.00000000000E+00  0.50000000000E+03  0.50000000000E+03  0.00000000000E+00 0.  1.
       11   -1    0    0    0    0 -0.00000000000E+00 -0.00000000000E+00 -0.50000000000E+03  0.50000000000E+03  0.00000000000E+00 0. -1.
  1000024    1    1    2    0    0 -0.41839203342E+03  0.20590754967E+03  0.24858836948E+01  0.50000000000E+03  0.18039957800E+03 0. -1.
 -1000024    1    1    2    0    0  0.41839203342E+03 -0.20590754967E+03 -0.24858836948E+01  0.50000000000E+03  0.18039957800E+03 0.  1.
</event>
<event>
 4   0  0.1092222E-03  0.2236068E+02  0.7957747E-01  0.1516063E+00
      -11   -1    0    0    0    0  0.00000000000E+00  0.00000000000E+00  0.50000000000E+03  0.50000000000E+03  0.00000000000E+00 0.  1.
       11   -1    0    0    0    0 -0.00000000000E+00 -0.00000000000E+00 -0.50000000000E+03  0.50000000000E+03  0.00000000000E+00 0. -1.
  1000024    1    1    2    0    0 -0.16253691909E+03  0.22128981329E+03  0.37691983329E+03  0.50000000000E+03  0.18039957800E+03 0. -1.
 -1000024    1    1    2    0    0  0.16253691909E+03 -0.22128981329E+03 -0.37691983329E+03  0.50000000000E+03  0.18039957800E+03 0.  1.
</event>
<event>
 4   0  0.7366543E-04  0.2236068E+02  0.7957747E-01  0.1516063E+00
      -11   -1    0    0    0    0  0.00000000000E+00  0.00000000000E+00  0.50000000000E+03  0.50000000000E+03  0.00000000000E+00 0.  1.
       11   -1    0    0    0    0 -0.00000000000E+00 -0.00000000000E+00 -0.50000000000E+03  0.50000000000E+03  0.00000000000E+00 0. -1.
  1000024    1    1    2    0    0 -0.25105793188E+03 -0.39296747306E+03 -0.15723282325E+01  0.50000000000E+03  0.18039957800E+03 0.  1.
 -1000024    1    1    2    0    0  0.25105793188E+03  0.39296747306E+03  0.15723282325E+01  0.50000000000E+03  0.18039957800E+03 0. -1.
</event>
<event>
 4   0  0.6712789E-04  0.2236068E+02  0.7957747E-01  0.1516063E+00
      -11   -1    0    0    0    0  0.00000000000E+00  0.00000000000E+00  0.50000000000E+03  0.50000000000E+03  0.00000000000E+00 0.  1.
       11   -1    0    0    0    0 -0.00000000000E+00 -0.00000000000E+00 -0.50000000000E+03  0.50000000000E+03  0.00000000000E+00 0. -1.
  1000024    1    1    2    0    0  0.24433415651E+03  0.22122268430E+03  0.32987472800E+03  0.50000000000E+03  0.18039957800E+03 0. -1.
 -1000024    1    1    2    0    0 -0.24433415651E+03 -0.22122268430E+03 -0.32987472800E+03  0.50000000000E+03  0.18039957800E+03 0.  1.
</event>
<event>
 4   0  0.1092222E-03  0.2236068E+02  0.7957747E-01  0.1516063E+00
      -11   -1    0    0    0    0  0.00000000000E+00  0.00000000000E+00  0.50000000000E+03  0.50000000000E+03  0.00000000000E+00 0.  1.
       11   -1    0    0    0    0 -0.00000000000E+00 -0.00000000000E+00 -0.50000000000E+03  0.50000000000E+03  0.00000000000E+00 0. -1.
  1000024    1    1    2    0    0 -0.11644915758E+03  0.80095722910E+02  0.44438751234E+03  0.50000000000E+03  0.18039957800E+03 0. -1.
 -1000024    1    1    2    0    0  0.11644915758E+03 -0.80095722910E+02 -0.44438751234E+03  0.50000000000E+03  0.18039957800E+03 0. -1.
</event>
<event>
 4   0  0.1092222E-03  0.2236068E+02  0.7957747E-01  0.1516063E+00
      -11   -1    0    0    0    0  0.00000000000E+00  0.00000000000E+00  0.50000000000E+03  0.50000000000E+03  0.00000000000E+00 0.  1.
       11   -1    0    0    0    0 -0.00000000000E+00 -0.00000000000E+00 -0.50000000000E+03  0.50000000000E+03  0.00000000000E+00 0. -1.
  1000024    1    1    2    0    0 -0.37072617530E+03 -0.91677529841E+02  0.26760666234E+03  0.50000000000E+03  0.18039957800E+03 0.  1.
 -1000024    1    1    2    0    0  0.37072617530E+03  0.91677529841E+02 -0.26760666234E+03  0.50000000000E+03  0.18039957800E+03 0. -1.
</event>
<event>
 4   0  0.1092222E-03  0.2236068E+02  0.7957747E-01  0.1516063E+00
      -11   -1    0    0    0    0  0.00000000000E+00  0.00000000000E+00  0.50000000000E+03  0.50000000000E+03  0.00000000000E+00 0.  1.
       11   -1    0    0    0    0 -0.00000000000E+00 -0.00000000000E+00 -0.50000000000E+03  0.50000000000E+03  0.00000000000E+00 0. -1.
  1000024    1    1    2    0    0  0.20951248259E+03 -0.17393966742E+03  0.37855713438E+03  0.50000000000E+03  0.18039957800E+03 0.  1.
 -1000024    1    1    2    0    0 -0.20951248259E+03  0.17393966742E+03 -0.37855713438E+03  0.50000000000E+03  0.18039957800E+03 0. -1.
</event>
<event>
 4   0  0.1092222E-03  0.2236068E+02  0.7957747E-01  0.1516063E+00
      -11   -1    0    0    0    0  0.00000000000E+00  0.00000000000E+00  0.50000000000E+03  0.50000000000E+03  0.00000000000E+00 0.  1.
       11   -1    0    0    0    0 -0.00000000000E+00 -0.00000000000E+00 -0.50000000000E+03  0.50000000000E+03  0.00000000000E+00 0. -1.
  1000024    1    1    2    0    0 -0.10241114817E+03 -0.44694041609E+03  0.84924751708E+02  0.50000000000E+03  0.18039957800E+03 0.  1.
 -1000024    1    1    2    0    0  0.10241114817E+03  0.44694041609E+03 -0.84924751708E+02  0.50000000000E+03  0.18039957800E+03 0. -1.
</event>
<event>
 4   0  0.1092222E-03  0.2236068E+02  0.7957747E-01  0.1516063E+00
      -11   -1    0    0    0    0  0.00000000000E+00  0.00000000000E+00  0.50000000000E+03  0.50000000000E+03  0.00000000000E+00 0.  1.
       11   -1    0    0    0    0 -0.00000000000E+00 -0.00000000000E+00 -0.50000000000E+03  0.50000000000E+03  0.00000000000E+00 0. -1.
  1000024    1    1    2    0    0  0.44552940681E+03 -0.50713483693E+02  0.12801438395E+03  0.50000000000E+03  0.18039957800E+03 0. -1.
 -1000024    1    1    2    0    0 -0.44552940681E+03  0.50713483693E+02 -0.12801438395E+03  0.50000000000E+03  0.18039957800E+03 0.  1.
</event>
<event>
 4   0  0.7366543E-04  0.2236068E+02  0.7957747E-01  0.1516063E+00
      -11   -1    0    0    0    0  0.00000000000E+00  0.00000000000E+00  0.50000000000E+03  0.50000000000E+03  0.00000000000E+00 0.  1.
       11   -1    0    0    0    0 -0.00000000000E+00 -0.00000000000E+00 -0.50000000000E+03  0.50000000000E+03  0.00000000000E+00 0. -1.
  1000024    1    1    2    0    0 -0.44753109631E+02  0.28293242477E+03  0.36797064346E+03  0.50000000000E+03  0.18039957800E+03 0. -1.
 -1000024    1    1    2    0    0  0.44753109631E+02 -0.28293242477E+03 -0.36797064346E+03  0.50000000000E+03  0.18039957800E+03 0.  1.
</event>
<event>
 4   0  0.1092222E-03  0.2236068E+02  0.7957747E-01  0.1516063E+00
      -11   -1    0    0    0    0  0.00000000000E+00  0.00000000000E+00  0.50000000000E+03  0.50000000000E+03  0.00000000000E+00 0.  1.
       11   -1    0    0    0    0 -0.00000000000E+00 -0.00000000000E+00 -0.50000000000E+03  0.50000000000E+03  0.00000000000E+00 0. -1.
  1000024    1    1    2    0    0  0.20143723176E+03 -0.31488361569E+03  0.27879623830E+03  0.50000000000E+03  0.18039957800E+03 0. -1.
 -1000024    1    1    2    0    0 -0.20143723176E+03  0.31488361569E+03 -0.27879623830E+03  0.50000000000E+03  0.18039957800E+03 0. -1.
</event>
<event>
 4   0  0.1092222E-03  0.2236068E+02  0.7957747E-01  0.1516063E+00
      -11   -1    0    0    0    0  0.00000000000E+00  0.00000000000E+00  0.50000000000E+03  0.50000000000E+03  0.00000000000E+00 0.  1.
       11   -1    0    0    0    0 -0.00000000000E+00 -0.00000000000E+00 -0.50000000000E+03  0.50000000000E+03  0.00000000000E+00 0. -1.
  1000024    1    1    2    0    0 -0.45424724324E+03  0.10428610433E+03 -0.15486856026E+02  0.50000000000E+03  0.18039957800E+03 0.  1.
 -1000024    1    1    2    0    0  0.45424724324E+03 -0.10428610433E+03  0.15486856026E+02  0.50000000000E+03  0.18039957800E+03 0. -1.
</event>
<event>
 4   0  0.6712789E-04  0.2236068E+02  0.7957747E-01  0.1516063E+00
      -11   -1    0    0    0    0  0.00000000000E+00  0.00000000000E+00  0.50000000000E+03  0.50000000000E+03  0.00000000000E+00 0.  1.
       11   -1    0    0    0    0 -0.00000000000E+00 -0.00000000000E+00 -0.50000000000E+03  0.50000000000E+03  0.00000000000E+00 0. -1.
  1000024    1    1    2    0    0 -0.15375539171E+03 -0.93944465657E+02  0.43010430032E+03  0.50000000000E+03  0.18039957800E+03 0. -1.
 -1000024    1    1    2    0    0  0.15375539171E+03  0.93944465657E+02 -0.43010430032E+03  0.50000000000E+03  0.18039957800E+03 0.  1.
</event>
<event>
 4   0  0.1092222E-03  0.2236068E+02  0.7957747E-01  0.1516063E+00
      -11   -1    0    0    0    0  0.00000000000E+00  0.00000000000E+00  0.50000000000E+03  0.50000000000E+03  0.00000000000E+00 0.  1.
       11   -1    0    0    0    0 -0.00000000000E+00 -0.00000000000E+00 -0.50000000000E+03  0.50000000000E+03  0.00000000000E+00 0. -1.
  1000024    1    1    2    0    0 -0.14664459770E+03 -0.34946670267E+03  0.27170641867E+03  0.50000000000E+03  0.18039957800E+03 0.  1.
 -1000024    1    1    2    0    0  0.14664459770E+03  0.34946670267E+03 -0.27170641867E+03  0.50000000000E+03  0.18039957800E+03 0. -1.
</event>
<event>
 4   0  0.1092222E-03  0.2236068E+02  0.7957747E-01  0.1516063E+00
      -11   -1    0    0    0    0  0.00000000000E+00  0.00000000000E+00  0.50000000000E+03  0.50000000000E+03  0.00000000000E+00 0.  1.
       11   -1    0    0    0    0 -0.00000000000E+00 -0.00000000000E+00 -0.50000000000E+03  0.50000000000E+03  0.00000000000E+00 0. -1.
  1000024    1    1    2    0    0  0.24745481182E+03  0.29128966555E+03 -0.26715620732E+03  0.50000000000E+03  0.18039957800E+03 0.  1.
 -1000024    1    1    2    0    0 -0.24745481182E+03 -0.29128966555E+03  0.26715620732E+03  0.50000000000E+03  0.18039957800E+03 0. -1.
</event>
<event>
 4   0  0.7366543E-04  0.2236068E+02  0.7957747E-01  0.1516063E+00
      -11   -1    0    0    0    0  0.00000000000E+00  0.00000000000E+00  0.50000000000E+03  0.50000000000E+03  0.00000000000E+00 0.  1.
       11   -1    0    0    0    0 -0.00000000000E+00 -0.00000000000E+00 -0.50000000000E+03  0.50000000000E+03  0.00000000000E+00 0. -1.
  1000024    1    1    2    0    0  0.21187156654E+03  0.33543547950E+03 -0.24504993500E+03  0.50000000000E+03  0.18039957800E+03 0.  1.
 -1000024    1    1    2    0    0 -0.21187156654E+03 -0.33543547950E+03  0.24504993500E+03  0.50000000000E+03  0.18039957800E+03 0. -1.
</event>
<event>
 4   0  0.6712789E-04  0.2236068E+02  0.7957747E-01  0.1516063E+00
      -11   -1    0    0    0    0  0.00000000000E+00  0.00000000000E+00  0.50000000000E+03  0.50000000000E+03  0.00000000000E+00 0.  1.
       11   -1    0    0    0    0 -0.00000000000E+00 -0.00000000000E+00 -0.50000000000E+03  0.50000000000E+03  0.00000000000E+00 0. -1.
  1000024    1    1    2    0    0 -0.40758654652E+03 -0.19346524424E+03  0.11789995176E+03  0.50000000000E+03  0.18039957800E+03 0.  1.
 -1000024    1    1    2    0    0  0.40758654652E+03  0.19346524424E+03 -0.11789995176E+03  0.50000000000E+03  0.18039957800E+03 0. -1.
</event>
<event>
 4   0  0.6712789E-04  0.2236068E+02  0.7957747E-01  0.1516063E+00
      -11   -1    0    0    0    0  0.00000000000E+00  0.00000000000E+00  0.50000000000E+03  0.50000000000E+03  0.00000000000E+00 0.  1.
       11   -1    0    0    0    0 -0.00000000000E+00 -0.00000000000E+00 -0.50000000000E+03  0.50000000000E+03  0.00000000000E+00 0. -1.
  1000024    1    1    2    0    0 -0.97091449754E+02 -0.42452384840E+03  0.16675954179E+03  0.50000000000E+03  0.18039957800E+03 0.  1.
 -1000024    1    1    2    0    0  0.97091449754E+02  0.42452384840E+03 -0.16675954179E+03  0.50000000000E+03  0.18039957800E+03 0. -1.
</event>
<event>
 4   0  0.1092222E-03  0.2236068E+02  0.7957747E-01  0.1516063E+00
      -11   -1    0    0    0    0  0.00000000000E+00  0.00000000000E+00  0.50000000000E+03  0.50000000000E+03  0.00000000000E+00 0.  1.
       11   -1    0    0    0    0 -0.00000000000E+00 -0.00000000000E+00 -0.50000000000E+03  0.50000000000E+03  0.00000000000E+00 0. -1.
  1000024    1    1    2    0    0 -0.35129002088E+03 -0.30667102198E+03 -0.20488445832E+01  0.50000000000E+03  0.18039957800E+03 0. -1.
 -1000024    1    1    2    0    0  0.35129002088E+03  0.30667102198E+03  0.20488445832E+01  0.50000000000E+03  0.18039957800E+03 0.  1.
</event>
<event>
 4   0  0.7366543E-04  0.2236068E+02  0.7957747E-01  0.1516063E+00
      -11   -1    0    0    0    0  0.00000000000E+00  0.00000000000E+00  0.50000000000E+03  0.50000000000E+03  0.00000000000E+00 0.  1.
       11   -1    0    0    0    0 -0.00000000000E+00 -0.00000000000E+00 -0.50000000000E+03  0.50000000000E+03  0.00000000000E+00 0. -1.
  1000024    1    1    2    0    0  0.38692621022E+03 -0.18799177821E+03  0.18000886486E+03  0.50000000000E+03  0.18039957800E+03 0.  1.
 -1000024    1    1    2    0    0 -0.38692621022E+03  0.18799177821E+03 -0.18000886486E+03  0.50000000000E+03  0.18039957800E+03 0. -1.
</event>
<event>
 4   0  0.1092222E-03  0.2236068E+02  0.7957747E-01  0.1516063E+00
      -11   -1    0    0    0    0  0.00000000000E+00  0.00000000000E+00  0.50000000000E+03  0.50000000000E+03  0.00000000000E+00 0.  1.
       11   -1    0    0    0    0 -0.00000000000E+00 -0.00000000000E+00 -0.50000000000E+03  0.50000000000E+03  0.00000000000E+00 0. -1.
  1000024    1    1    2    0    0 -0.31133545864E+03  0.24976787533E+03 -0.24112700575E+03  0.50000000000E+03  0.18039957800E+03 0.  1.
 -1000024    1    1    2    0    0  0.31133545864E+03 -0.24976787533E+03  0.24112700575E+03  0.50000000000E+03  0.18039957800E+03 0.  1.
</event>
<event>
 4   0  0.6712789E-04  0.2236068E+02  0.7957747E-01  0.1516063E+00
      -11   -1    0    0    0    0  0.00000000000E+00  0.00000000000E+00  0.50000000000E+03  0.50000000000E+03  0.00000000000E+00 0.  1.
       11   -1    0    0    0    0 -0.00000000000E+00 -0.00000000000E+00 -0.50000000000E+03  0.50000000000E+03  0.00000000000E+00 0. -1.
  1000024    1    1    2    0    0 -0.43675110394E+03  0.87135164656E+02  0.13824589884E+03  0.50000000000E+03  0.18039957800E+03 0.  1.
 -1000024    1    1    2    0    0  0.43675110394E+03 -0.87135164656E+02 -0.13824589884E+03  0.50000000000E+03  0.18039957800E+03 0. -1.
</event>
<event>
 4   0  0.7366543E-04  0.2236068E+02  0.7957747E-01  0.1516063E+00
      -11   -1    0    0    0    0  0.00000000000E+00  0.00000000000E+00  0.50000000000E+03  0.50000000000E+03  0.00000000000E+00 0.  1.
       11   -1    0    0    0    0 -0.00000000000E+00 -0.00000000000E+00 -0.50000000000E+03  0.50000000000E+03  0.00000000000E+00 0. -1.
  1000024    1    1    2    0    0 -0.37878612743E+03  0.26325800484E+03 -0.68354113340E+02  0.50000000000E+03  0.18039957800E+03 0. -1.
 -1000024    1    1    2    0    0  0.37878612743E+03 -0.26325800484E+03  0.68354113340E+02  0.50000000000E+03  0.18039957800E+03 0.  1.
</event>
<event>
 4   0  0.7366543E-04  0.2236068E+02  0.7957747E-01  0.1516063E+00
      -11   -1    0    0    0    0  0.00000000000E+00  0.00000000000E+00  0.50000000000E+03  0.50000000000E+03  0.00000000000E+00 0.  1.
       11   -1    0    0    0    0 -0.00000000000E+00 -0.00000000000E+00 -0.50000000000E+03  0.50000000000E+03  0.00000000000E+00 0. -1.
  1000024    1    1    2    0    0 -0.34005415419E+03 -0.21403756848E+03  0.23665815802E+03  0.50000000000E+03  0.18039957800E+03 0. -1.
 -1000024    1    1    2    0    0  0.34005415419E+03  0.21403756848E+03 -0.23665815802E+03  0.50000000000E+03  0.18039957800E+03 0.  1.
</event>
<event>
 4   0  0.6712789E-04  0.2236068E+02  0.7957747E-01  0.1516063E+00
      -11   -1    0    0    0    0  0.00000000000E+00  0.00000000000E+00  0.50000000000E+03  0.50000000000E+03  0.00000000000E+00 0.  1.
       11   -1    0    0    0    0 -0.00000000000E+00 -0.00000000000E+00 -0.50000000000E+03  0.50000000000E+03  0.00000000000E+00 0. -1.
  1000024    1    1    2    0    0  0.81882960100E+02  0.35971300097E+03  0.28523276466E+03  0.50000000000E+03  0.18039957800E+03 0.  1.
 -1000024    1    1    2    0    0 -0.81882960100E+02 -0.35971300097E+03 -0.28523276466E+03  0.50000000000E+03  0.18039957800E+03 0. -1.
</event>
</LesHouchesEvents>
